# Region type : patch inlet
# Faces         : 480
# Area          : 6.55820596e-01
# Scale factor  : 1.00000000e+00
# Time          	sum(phi)
1600            	-1.35492535e-01
