# Region type : patch outlet
# Faces         : 236
# Area          : 3.27400694e-01
# Scale factor  : 1.00000000e+00
# Time          	sum(phi)
1600            	1.35494099e-01
