/*--------------------------------*- C++ -*----------------------------------*\
| =========                 |                                                 |
| \\      /  F ield         | OpenFOAM: The Open Source CFD Toolbox           |
|  \\    /   O peration     | Version:  2306                                  |
|   \\  /    A nd           | Website:  www.openfoam.com                      |
|    \\/     M anipulation  |                                                 |
\*---------------------------------------------------------------------------*/
FoamFile
{
    version     2.0;
    format      ascii;
    arch        "LSB;label=32;scalar=64";
    class       volScalarField;
    location    "1600";
    object      alphat;
}
// * * * * * * * * * * * * * * * * * * * * * * * * * * * * * * * * * * * * * //

dimensions      [1 -1 -1 0 0 0 0];

internalField   nonuniform List<scalar> 
225451
(
0.0005115189
0.00032545281
0.00023644134
0.00015536678
8.1661395e-05
1.1751259e-05
1.8823919e-05
0.0001412035
0.00024985325
0.00033842729
0.00042712923
0.00030300371
0.00021865599
0.00014774364
8.0536825e-05
1.5093499e-05
1.6998079e-05
6.6471452e-05
0.00012675779
0.00020143185
0.00029453066
0.00033173723
0.00023550276
0.00014669005
7.170036e-05
1.5675007e-05
1.6487291e-05
7.9556378e-05
0.00017515899
0.00028730168
0.00040564914
0.00038814871
0.00027877965
0.00017677521
8.3661044e-05
1.3741293e-05
2.1489705e-05
0.00015234169
0.00030125083
0.00042397309
0.0005356454
0.00063959521
0.00054128178
0.00040553587
0.00021180202
2.8936249e-05
2.3552748e-05
0.00015996019
0.00029358794
0.00039402472
0.00048567529
0.00030764074
0.00021811271
0.00014658498
7.7259373e-05
1.68901e-05
1.7532347e-05
6.168011e-05
0.00011885324
0.00019341204
0.00029356966
0.00032336243
0.00020742991
0.00012060742
5.9934888e-05
2.0087564e-05
1.9693304e-05
6.5572322e-05
0.00012969188
0.00021557554
0.00032233997
0.00036985158
0.00026011747
0.00015770284
7.4351781e-05
1.8136245e-05
1.8659421e-05
8.5081307e-05
0.00019348585
0.00032374906
0.00045918161
0.00049891063
0.00034780533
0.00020368589
8.5530434e-05
1.8713019e-05
1.710072e-05
7.6784398e-05
0.00017974464
0.0003041327
0.00043759345
0.00041697448
0.00029111574
0.00017531438
7.4659249e-05
1.5441034e-05
2.3067938e-05
0.00014484685
0.00030914212
0.00045542012
0.00058958883
0.00073957477
0.00061203111
0.00044022747
0.00021473183
3.0634316e-05
3.1740606e-05
0.00022192088
0.00047553205
0.00067768228
0.0008233945
0.00070154766
0.00059301944
0.00043589545
0.00021814576
3.0698797e-05
2.5125678e-05
0.00015843649
0.00030732884
0.00042234843
0.00052041117
0.00032094797
0.00022334944
0.00014337819
6.728129e-05
1.8334287e-05
1.7847232e-05
5.6675174e-05
0.00011717056
0.00019650694
0.00030074492
0.00032983326
0.00021214099
0.00012157841
5.7369684e-05
1.9555301e-05
2.1828698e-05
5.8221429e-05
0.00012928079
0.00023292283
0.0003643285
0.00036031119
0.00022868501
0.0001273717
5.980458e-05
2.2711746e-05
2.2175848e-05
6.5264307e-05
0.00013505393
0.00023289708
0.00035273019
0.00040845987
0.00028484265
0.0001693073
7.7178843e-05
2.0249179e-05
2.0444763e-05
8.9702872e-05
0.00021031782
0.00035681939
0.0005081301
0.00055540915
0.00038671694
0.00022442617
9.1955406e-05
2.0136109e-05
1.9983542e-05
9.0255617e-05
0.00022764847
0.00039822492
0.00057697125
0.00051430001
0.00035416514
0.00020270288
8.1414944e-05
1.8937904e-05
1.7861629e-05
7.0187112e-05
0.00017432365
0.00030512637
0.0004476891
0.00042301086
0.00028719523
0.00016435914
6.4255903e-05
1.6820672e-05
2.4270711e-05
0.00013184987
0.00029919445
0.00045724171
0.00060456471
0.00078183326
0.0006331696
0.00044041646
0.00020387431
3.1504764e-05
3.2194079e-05
0.00021134725
0.00047757797
0.00070588776
0.00087895012
0.00091261259
0.00072481482
0.00048083058
0.00020602727
3.2437184e-05
3.2303819e-05
0.00021510906
0.00047721904
0.00069401084
0.00085202105
0.00072226263
0.0006061376
0.00043742441
0.0002113458
3.1805867e-05
2.6418212e-05
0.00014987588
0.00030469346
0.00042751926
0.00052841352
0.00032349864
0.00022173097
0.0001369307
5.8492975e-05
1.9586634e-05
1.8301896e-05
5.1473843e-05
0.00011276771
0.00019370667
0.00029879071
0.00032479696
0.00020882685
0.00011898182
5.4732672e-05
1.9026684e-05
2.0917375e-05
5.6222601e-05
0.00012624661
0.00022734485
0.00035548687
0.00039142859
0.00025067057
0.00013719719
5.9331018e-05
2.2683288e-05
2.3700798e-05
6.1140044e-05
0.00014086604
0.00025820211
0.00040347422
0.00040089633
0.00025464707
0.00013835201
6.1936979e-05
2.4745899e-05
2.3998492e-05
6.6436357e-05
0.00014284432
0.00025259125
0.00038476349
0.00044464297
0.00030862868
0.00018144994
8.1182734e-05
2.1696154e-05
2.1646055e-05
9.5320298e-05
0.00022714853
0.00038744766
0.00055225519
0.00060533005
0.0004221721
0.00024470216
9.9081638e-05
2.1065441e-05
2.0649914e-05
9.8933893e-05
0.00025117717
0.00043807909
0.00063211306
0.00063693846
0.00043801449
0.00024800188
9.5364421e-05
2.0279902e-05
1.9823386e-05
8.550341e-05
0.00022185307
0.0003944313
0.00057708582
0.00050914279
0.00034580763
0.00019353023
7.4984563e-05
1.9088823e-05
1.8409328e-05
6.2574196e-05
0.00016285154
0.0002946593
0.00044110547
0.00041334241
0.00027327967
0.00014946972
5.5199778e-05
1.7720305e-05
2.4982942e-05
0.00011758123
0.00028005414
0.00044190775
0.00059652239
0.00078742943
0.00062547435
0.00042319244
0.00018810142
3.1840369e-05
3.2402789e-05
0.00019649417
0.00046173507
0.0007021038
0.00089194066
0.00092870292
0.00072244058
0.00046606362
0.00019266731
3.2544244e-05
3.2615543e-05
0.00018283561
0.00045123867
0.0007102038
0.00092359333
0.0009073796
0.00071212031
0.0004645846
0.00019435708
3.261911e-05
3.2608478e-05
0.00020148751
0.0004601538
0.0006815777
0.00084695125
0.00071821342
0.00059511601
0.00042099583
0.00019663478
3.2295195e-05
2.7222468e-05
0.00013630578
0.00029067892
0.00041821081
0.00052342538
0.00032260862
0.00021665806
0.00012742835
4.9341239e-05
2.0615337e-05
1.8683205e-05
4.5524695e-05
0.0001078024
0.00019229523
0.00030024108
0.00032841061
0.00021111725
0.00011831876
5.1847484e-05
1.8347243e-05
1.9745306e-05
5.4459297e-05
0.00012619726
0.00022853408
0.00035589029
0.00038554719
0.00024810155
0.00013589091
5.7663298e-05
2.1398749e-05
2.3099912e-05
6.1285614e-05
0.00014610661
0.00026801489
0.00041596776
0.00043039887
0.00027659718
0.00015024506
6.3376683e-05
2.4363092e-05
2.5387362e-05
6.5061362e-05
0.00015459277
0.00028614771
0.00044533725
0.0004425681
0.000282605
0.00015156548
6.5174004e-05
2.6514034e-05
2.5555881e-05
6.8037952e-05
0.00015150492
0.00027296755
0.00041653407
0.00047687159
0.00032990439
0.00019256542
8.5158384e-05
2.2843246e-05
2.2565108e-05
0.00010047433
0.00024171604
0.00041330874
0.00058939006
0.00064510778
0.00045068006
0.00026150332
0.00010526231
2.1725129e-05
2.1064315e-05
0.00010629728
0.00027034855
0.00046941588
0.00067478762
0.00068367256
0.00047280878
0.00026972228
0.0001038921
2.0509788e-05
2.0045622e-05
9.9079937e-05
0.00026228082
0.00046516766
0.00067771099
0.00062626248
0.00042678309
0.00023826229
8.9668284e-05
1.9926486e-05
1.961595e-05
7.8700335e-05
0.00021011411
0.00038028767
0.00056248571
0.00049318196
0.0003298364
0.00018029109
6.7795841e-05
1.9112637e-05
1.8708844e-05
5.532451e-05
0.00014890774
0.00027798148
0.00042453681
0.00039471856
0.00025452461
0.00013382568
4.7804972e-05
1.8222657e-05
2.5369268e-05
0.00010396185
0.00025767077
0.00041844835
0.00057595769
0.00077198883
0.00060291336
0.00039836403
0.00017131942
3.1919853e-05
3.2416216e-05
0.0001803639
0.00043716531
0.0006806881
0.00087957818
0.00091758464
0.00070152117
0.00044224719
0.00017773386
3.2466562e-05
3.2443919e-05
0.00016947557
0.00042897326
0.00069001658
0.00091259757
0.00087862869
0.00065746318
0.00040364851
0.00015711968
3.2094759e-05
3.2344182e-05
0.00016851359
0.00042342476
0.00067604319
0.0008893749
0.00087426086
0.0006773768
0.00043467093
0.00017787083
3.2439442e-05
3.2528462e-05
0.00018285614
0.00042936057
0.00064832732
0.00081719747
0.00069558669
0.00056683304
0.00039211089
0.00017697076
3.2296385e-05
2.7539468e-05
0.00011926296
0.00026841158
0.00039795561
0.00050768686
0.00031849363
0.00020863662
0.00011549335
4.1032308e-05
2.1233406e-05
1.877959e-05
3.9589824e-05
0.00010358798
0.00019414097
0.00030660748
0.00034744435
0.00022614711
0.00012485274
5.0612418e-05
1.7267578e-05
1.7947287e-05
5.6490197e-05
0.00013778704
0.00024765737
0.0003765496
0.00039914738
0.00026259187
0.00014608842
6.013157e-05
1.9427756e-05
2.1180134e-05
6.2263242e-05
0.00015072738
0.00027247628
0.00041641953
0.0004360205
0.00028336119
0.00015538139
6.415348e-05
2.2996483e-05
2.4777009e-05
6.552133e-05
0.00015826217
0.00029164321
0.0004518871
0.00047462829
0.00030656062
0.00016577695
6.8429128e-05
2.5941002e-05
2.6937467e-05
6.99557e-05
0.00017056294
0.00031724483
0.00049077646
0.00048580486
0.00031253009
0.0001666408
6.9362756e-05
2.8102955e-05
2.6950231e-05
7.0073114e-05
0.00016106593
0.00029416046
0.00044846665
0.00050658722
0.00034951109
0.00020290332
8.9056318e-05
2.3799612e-05
2.330283e-05
0.00010522061
0.00025439799
0.00043548386
0.00062130873
0.00067622203
0.00047302195
0.00027500448
0.00011051081
2.2191971e-05
2.1265971e-05
0.00011225375
0.00028495364
0.00049235969
0.00070566586
0.0007173184
0.00049843574
0.00028653367
0.00011092232
2.0517168e-05
1.9953827e-05
0.00010723913
0.00028191541
0.000495067
0.00071674982
0.00070321398
0.00048197824
0.00027137261
0.00010155617
1.9458375e-05
1.9576669e-05
9.2609054e-05
0.00024934521
0.00044793269
0.00065838847
0.00060305947
0.00040691992
0.00022391223
8.2811388e-05
1.9511741e-05
1.9298155e-05
7.1281847e-05
0.00019383691
0.00035801598
0.00053649439
0.00046931724
0.00030883681
0.00016503592
6.0803837e-05
1.8959035e-05
1.8741357e-05
4.9045152e-05
0.00013454775
0.00025815431
0.00040193461
0.00037129605
0.00023398327
0.00011912324
4.2072018e-05
1.837349e-05
2.5489623e-05
9.1734398e-05
0.00023474161
0.00039124352
0.00054828441
0.00074407152
0.00057240177
0.00037034997
0.00015492068
3.1782612e-05
3.2220169e-05
0.0001641702
0.00040833989
0.00064915717
0.00085150872
0.00088930187
0.00066968883
0.00041375188
0.00016238495
3.2185871e-05
3.2080777e-05
0.00015541271
0.00040191231
0.00065893859
0.00088433703
0.00085136267
0.00062843767
0.00037908332
0.00014477623
3.1664944e-05
3.0887722e-05
0.00013179495
0.00034904756
0.00058471616
0.00079887788
0.00082377657
0.00061045454
0.00037032394
0.00014215757
3.1365145e-05
3.1671215e-05
0.00015137268
0.00038688192
0.00062638036
0.00083332606
0.00081926569
0.00062658661
0.00039549817
0.00015845992
3.1833791e-05
3.1996235e-05
0.00016142232
0.00038931623
0.00059956671
0.00076719303
0.0006567473
0.00052547722
0.00035507617
0.00015496787
3.1811679e-05
2.7365853e-05
0.00010124639
0.00024083747
0.00036869088
0.00048047494
0.0003076839
0.00019631005
0.00010181256
3.4259185e-05
2.126362e-05
1.8561791e-05
3.4136726e-05
9.856091e-05
0.00019456369
0.00031041807
0.0003768925
0.00025177878
0.00013939418
5.2489053e-05
1.5895699e-05
1.5614084e-05
6.8569432e-05
0.00017067987
0.000293088
0.00042412479
0.00044617367
0.0003089526
0.00018190793
7.5242955e-05
1.6723266e-05
1.8524701e-05
7.3799512e-05
0.00017877149
0.00030847453
0.00045205924
0.00045127743
0.0003020959
0.00017142756
7.0598712e-05
2.0485708e-05
2.2505751e-05
6.850847e-05
0.00016666139
0.00029973606
0.00045574247
0.00046526484
0.0003012821
0.00016390094
6.7218054e-05
2.4830492e-05
2.6449927e-05
7.0926036e-05
0.00017418455
0.00032195219
0.00049674531
0.00052523446
0.00034163216
0.00018444243
7.4500159e-05
2.7515235e-05
2.8441495e-05
7.5724962e-05
0.00018887279
0.00035173423
0.00053999134
0.00053098063
0.00034467226
0.00018357159
7.4378794e-05
2.9618025e-05
2.8296729e-05
7.246877e-05
0.00017166428
0.00031652507
0.00048109854
0.00053477063
0.00036807186
0.00021261463
9.2747053e-05
2.4684709e-05
2.3969096e-05
0.00010937017
0.00026534488
0.00045469863
0.00064914488
0.00069930477
0.00048944804
0.00028497741
0.00011446453
2.2566666e-05
2.1335302e-05
0.00011619446
0.00029413334
0.0005062301
0.00072428078
0.00073630764
0.00051331273
0.00029701332
0.00011564473
2.0356413e-05
1.9686434e-05
0.00011327074
0.00029550526
0.00051448172
0.00074128164
0.00073553862
0.00050713283
0.0002883991
0.00010883526
1.918229e-05
1.8667313e-05
0.00010249852
0.00027534357
0.00048951685
0.00071574454
0.00067617527
0.00045940202
0.00025561492
9.4367617e-05
1.8905523e-05
1.9014183e-05
8.5142018e-05
0.00023224502
0.0004225577
0.00062697884
0.00056961571
0.00038040323
0.00020628644
7.5020454e-05
1.8972932e-05
1.882637e-05
6.4092268e-05
0.00017623417
0.00033089141
0.00050236304
0.00044027043
0.00028513895
0.00014941893
5.4497533e-05
1.8606597e-05
1.8517199e-05
4.3856212e-05
0.00012091789
0.00023720798
0.00037602437
0.00034571727
0.00021344043
0.00010609109
3.7755032e-05
1.8225143e-05
2.5374606e-05
8.1092297e-05
0.00021257263
0.00036270993
0.0005167484
0.00070880807
0.000537881
0.00034146832
0.00013951065
3.1459085e-05
3.1838487e-05
0.00014858552
0.00037786058
0.00061210099
0.00081383409
0.00085041121
0.00063176954
0.0003832531
0.00014735904
3.1726244e-05
3.154771e-05
0.00014142505
0.0003726601
0.00062170774
0.00084539055
0.00081379297
0.00059338175
0.00035215869
0.00013225929
3.1073199e-05
3.0254972e-05
0.00012101381
0.00032518163
0.00055301271
0.00076410662
0.00070173515
0.00050362242
0.00029206933
0.00010726694
2.9099086e-05
2.9752067e-05
0.0001171654
0.00031467102
0.00053280181
0.00073353512
0.00075541198
0.0005549324
0.00033280883
0.00012614168
3.0261384e-05
3.0607783e-05
0.00013327518
0.00034603903
0.00056775266
0.0007630174
0.00074958626
0.00056653769
0.00035203015
0.00013831354
3.0818736e-05
3.1034158e-05
0.00013965421
0.00034524787
0.00054180247
0.00070294075
0.00060539468
0.00047626852
0.00031472154
0.00013320322
3.0881538e-05
2.6696006e-05
8.4407367e-05
0.00021127242
0.00033351775
0.0004430407
0.00028686268
0.00017831687
8.7082836e-05
2.9103721e-05
2.0671576e-05
1.788709e-05
2.8896483e-05
8.8875927e-05
0.00018363585
0.00029683143
0.00038139446
0.0002588858
0.00014425663
5.2544642e-05
1.4309708e-05
1.3251179e-05
8.2901308e-05
0.00020115866
0.00032964834
0.00045830853
0.00050501058
0.00037063515
0.00023509797
0.0001035639
1.3814297e-05
1.547764e-05
0.00010303251
0.00023535
0.00037600189
0.00051900345
0.00050902394
0.00036010513
0.00021897238
9.3669061e-05
1.743969e-05
1.9537627e-05
8.2507095e-05
0.00019712482
0.00033597238
0.00048917577
0.00047703748
0.00031860578
0.00018079006
7.4639527e-05
2.1711924e-05
2.4532224e-05
6.9039711e-05
0.00016891172
0.00030861699
0.00047458688
0.00050796105
0.00032946917
0.00017835952
7.2183706e-05
2.6654538e-05
2.8116162e-05
7.7859723e-05
0.00019479988
0.00036007136
0.00055146817
0.00058199684
0.00038196551
0.00020655337
8.177886e-05
2.9084211e-05
2.9938414e-05
8.2372523e-05
0.00020960836
0.00038959347
0.00059272759
0.00057827861
0.00037926307
0.00020252598
8.0221297e-05
3.1098256e-05
2.9636456e-05
7.531051e-05
0.00018355673
0.00034046079
0.00051492021
0.00056240013
0.00038630444
0.00022204046
9.6244588e-05
2.554881e-05
2.4617008e-05
0.00011306521
0.00027521239
0.00047216162
0.00067445042
0.00071602148
0.00050121926
0.00029206023
0.00011725348
2.2906855e-05
2.1325049e-05
0.00011805787
0.00029809599
0.00051169144
0.00073159862
0.00074059241
0.00051726786
0.00030081125
0.00011776355
2.0066128e-05
1.9275027e-05
0.00011672435
0.00030235425
0.00052274536
0.0007507074
0.00075481825
0.00052272722
0.00029967971
0.0001139325
1.8794293e-05
1.8337247e-05
0.00010924289
0.00029106888
0.00051278974
0.0007458802
0.0007219327
0.00049290894
0.00027767737
0.00010346745
1.7668039e-05
1.7967778e-05
9.4979965e-05
0.0002575801
0.00046258007
0.00068212081
0.00063649472
0.00042858887
0.00023590303
8.6320506e-05
1.8181635e-05
1.8278182e-05
7.6977373e-05
0.00021212363
0.00039055482
0.00058500404
0.00052716093
0.00034760343
0.00018562787
6.7164094e-05
1.8258926e-05
1.8166432e-05
5.7513953e-05
0.0001585774
0.00030222501
0.00046551627
0.00040859225
0.00026066574
0.00013450812
4.9079205e-05
1.8041019e-05
1.8046138e-05
3.9706733e-05
0.00010862325
0.00021647267
0.00034870904
0.00031959957
0.0001939053
9.4993085e-05
3.4607356e-05
1.781381e-05
2.5033959e-05
7.2011587e-05
0.00019177102
0.0003341667
0.0004832967
0.00066927918
0.00050159563
0.00031294647
0.00012535001
3.0962398e-05
3.1287338e-05
0.00013397891
0.00034721453
0.00057227634
0.00077034729
0.00080505232
0.00059069965
0.00035233343
0.00013310047
3.1105078e-05
3.0860645e-05
0.00012799226
0.00034277006
0.00058119421
0.00079985308
0.00076967168
0.00055490766
0.00032430491
0.00012005243
3.0334209e-05
2.9481332e-05
0.00010921252
0.00029919493
0.00051727021
0.00072251362
0.0006636845
0.00047041378
0.00026841078
9.7541465e-05
2.8318319e-05
2.6859726e-05
8.5989862e-05
0.0002366513
0.00042029487
0.0006003814
0.00063217965
0.00044860769
0.00025666475
9.3826856e-05
2.762748e-05
2.8277539e-05
0.00010151958
0.00027527348
0.00047339601
0.00065825254
0.00067780155
0.00049347887
0.00029124585
0.00010859953
2.8795863e-05
2.9166187e-05
0.00011480111
0.00030344616
0.0005045366
0.0006840729
0.00067148216
0.00050235284
0.00030758812
0.00011877374
2.941332e-05
2.9668142e-05
0.00011899801
0.00030071718
0.00048026043
0.00063054611
0.00054628561
0.00042354939
0.00027417729
0.00011296554
2.9540441e-05
2.5523e-05
6.8904142e-05
0.00018119726
0.00029520642
0.00039904693
0.00025876913
0.0001567082
7.30212e-05
2.5231368e-05
1.9506536e-05
1.6741312e-05
2.4037552e-05
7.5140808e-05
0.00016167079
0.00026618394
0.00034692372
0.00023559788
0.00013125692
4.7605452e-05
1.246957e-05
1.093484e-05
8.1344686e-05
0.00019541146
0.00031648973
0.00043521562
0.00051762506
0.00039151621
0.00025617598
0.00011548644
1.1287122e-05
1.2917832e-05
0.00012940845
0.0002834171
0.00043134884
0.00057079234
0.0005850628
0.00043701535
0.00028484598
0.00013053997
1.4590974e-05
1.645272e-05
0.00011628878
0.00026056402
0.00041134579
0.00056436853
0.00053086882
0.00037419065
0.00022736529
9.7751865e-05
1.8516854e-05
2.0744777e-05
8.3400946e-05
0.00019983497
0.00034343857
0.00050454822
0.00048289593
0.0003160966
0.00017480688
7.1469358e-05
2.3899637e-05
2.6525635e-05
7.2601792e-05
0.00017975297
0.00033158252
0.0005114183
0.00056433343
0.00036853418
0.00019940478
7.9328118e-05
2.8451102e-05
2.977054e-05
8.6429408e-05
0.00022016122
0.00040551607
0.00061482922
0.00064372273
0.00042692611
0.00023195915
9.0271423e-05
3.0649928e-05
3.143154e-05
8.995817e-05
0.00023278221
0.00043057176
0.0006484318
0.00062762333
0.00041634111
0.00022360723
8.6924349e-05
3.2558904e-05
3.0981013e-05
7.8674892e-05
0.00019693398
0.00036616357
0.00055011744
0.0005900242
0.00040464843
0.00023141761
9.9531321e-05
2.6417578e-05
2.5275077e-05
0.00011647153
0.000284616
0.00048887756
0.00069842436
0.00072792802
0.00050958528
0.00029696899
0.00011906884
2.3249172e-05
2.1275448e-05
0.00011788988
0.00029726681
0.00050964435
0.00072877637
0.00073039818
0.00051041772
0.00029781747
0.000117094
1.9675381e-05
1.8740608e-05
0.00011715288
0.0003017859
0.00051913365
0.00074424949
0.00075946993
0.00052743705
0.00030425561
0.00011639079
1.8289796e-05
1.7916251e-05
0.00011323516
0.00030023926
0.00052546462
0.00076154558
0.00074176974
0.0005081942
0.00028799558
0.00010768453
1.7356015e-05
1.6387799e-05
0.00010212512
0.00027217814
0.0004803949
0.00070286646
0.00068324591
0.00046493194
0.00026156997
9.763873e-05
1.663702e-05
1.6943279e-05
8.7844156e-05
0.00023830428
0.00043028063
0.00063861577
0.00058624885
0.00039136088
0.00021319365
7.7448587e-05
1.721317e-05
1.731864e-05
6.8479176e-05
0.00018886262
0.00035185623
0.00053270875
0.00048093451
0.00031329064
0.00016543887
6.0019887e-05
1.733723e-05
1.7296356e-05
5.1788228e-05
0.00014188887
0.00027334668
0.00042678602
0.00037582381
0.00023659659
0.00012092077
4.4594427e-05
1.7252645e-05
1.7335953e-05
3.64926e-05
9.795361e-05
0.00019678496
0.00032125663
0.0002939528
0.00017595934
8.58862e-05
3.2431364e-05
1.7164284e-05
2.4466442e-05
6.4383407e-05
0.00017258141
0.00030632397
0.00044911893
0.00062735996
0.00046482763
0.00028540844
0.00011252191
3.0292764e-05
3.0570402e-05
0.00012052851
0.00031723013
0.00053131455
0.00072339357
0.00075573689
0.00054821842
0.00032188563
0.00011984463
3.0326804e-05
3.0023733e-05
0.00011537014
0.00031309332
0.00053903042
0.00075010536
0.00072089145
0.00051421074
0.000295905
0.00010776346
2.9450983e-05
2.8577669e-05
9.8099669e-05
0.0002711681
0.00047725097
0.0006748595
0.00062264244
0.00043509885
0.00024407023
8.8167431e-05
2.7420255e-05
2.5984668e-05
7.8243668e-05
0.00021586578
0.00038954481
0.00056435398
0.00049853089
0.00034000586
0.00018643303
6.8320589e-05
2.4228996e-05
2.5077815e-05
7.460395e-05
0.0002038837
0.00036660943
0.00053034408
0.00055803308
0.00039083406
0.00022052513
8.0838294e-05
2.5830039e-05
2.6466871e-05
8.6760995e-05
0.00023562093
0.00041152523
0.00058000685
0.00059436542
0.00042723689
0.00024821051
9.20088e-05
2.698044e-05
2.7355981e-05
9.6165384e-05
0.00025701611
0.00043536508
0.0005973332
0.0005852726
0.00043309537
0.00026007398
9.8568165e-05
2.7616417e-05
2.7886544e-05
9.8435736e-05
0.00025490589
0.00041575554
0.00055178978
0.00048092078
0.00036815793
0.00023376574
9.4286472e-05
2.7772094e-05
2.3808452e-05
5.4688555e-05
0.00014684842
0.0002502687
0.00034669952
0.00022667078
0.0001339733
6.1286341e-05
2.2417732e-05
1.782971e-05
1.5117506e-05
2.0112898e-05
6.0072082e-05
0.00013377092
0.00022607086
0.00028913831
0.0001940905
0.00010653961
3.7995647e-05
1.0730052e-05
8.6443967e-06
6.7205737e-05
0.00016243607
0.00026447685
0.00036566481
0.00046097496
0.00034542276
0.00021964828
9.3466443e-05
9.7996825e-06
1.196708e-05
0.00011079447
0.00026230214
0.00041208515
0.00054800345
0.00060899572
0.00045989353
0.00029618565
0.00012743476
1.3657999e-05
1.4682962e-05
0.00014000547
0.00031107441
0.00047534078
0.00063005624
0.00061217874
0.00045500915
0.00029573575
0.00013585337
1.5662731e-05
1.7630497e-05
0.0001142827
0.00025919729
0.00041468665
0.00057584396
0.00054331801
0.00037737297
0.00022528632
9.5288815e-05
1.9828028e-05
2.3012692e-05
7.5811584e-05
0.00018496601
0.00032918171
0.00049724915
0.0005101836
0.00033086819
0.00018004398
7.2750684e-05
2.6029639e-05
2.845067e-05
7.9157003e-05
0.00019921433
0.00036851236
0.00056565613
0.00063202705
0.00041720477
0.00022669068
8.8650078e-05
3.0197562e-05
3.1395242e-05
9.656562e-05
0.00024970473
0.00045677893
0.00068442244
0.00070897465
0.00047558428
0.00026030543
9.994525e-05
3.2198128e-05
3.2907752e-05
9.8520719e-05
0.00025832177
0.0004743339
0.00070654191
0.00067880856
0.000455823
0.00024687072
9.4535541e-05
3.3994769e-05
3.2319445e-05
8.2610388e-05
0.00021186807
0.00039360526
0.00058659301
0.00061782018
0.00042326591
0.00024087847
0.00010260954
2.7292019e-05
2.594557e-05
0.00011980787
0.00029413842
0.00050563517
0.00072193771
0.00073641963
0.00051573453
0.0003005018
0.00012020539
2.3602957e-05
2.1202001e-05
0.0001159173
0.00029234914
0.00050124856
0.00071721787
0.00070669063
0.00049357388
0.00028847654
0.00011374055
1.9192093e-05
1.8089889e-05
0.00011450446
0.00029378075
0.00050362233
0.00072171932
0.00074486871
0.00051759585
0.00029932757
0.00011452563
1.7667902e-05
1.7501206e-05
0.0001117954
0.00029737388
0.00052043721
0.00075458393
0.00073869644
0.00050533427
0.00028566573
0.00010609617
1.7175418e-05
1.6472623e-05
9.99773e-05
0.00026934722
0.00047737357
0.00069933252
0.00064614787
0.00044591164
0.00025500723
9.5856973e-05
1.5968661e-05
1.5306486e-05
0.00010078734
0.00026294404
0.00045664122
0.00066186182
0.00064399453
0.00044035966
0.00025074311
9.5510068e-05
1.5161777e-05
1.5549647e-05
8.2371842e-05
0.0002212749
0.00039895035
0.00059403092
0.00053290829
0.00035202137
0.00019034964
6.9492197e-05
1.5965659e-05
1.6108972e-05
6.1084459e-05
0.00016721809
0.0003140098
0.00048132218
0.00043491944
0.0002798842
0.00014680306
5.3842145e-05
1.6183416e-05
1.6193222e-05
4.6978269e-05
0.00012672907
0.00024526954
0.00038738145
0.00034298479
0.0002136881
0.00010898834
4.1012986e-05
1.6227507e-05
1.6385018e-05
3.4113609e-05
8.9026144e-05
0.00017864806
0.000294457
0.00026936765
0.00015993456
7.8746607e-05
3.1090983e-05
1.6288738e-05
2.3659254e-05
5.8073909e-05
0.00015503942
0.00027949932
0.00041487303
0.00058410741
0.00042823121
0.00025911663
0.00010100951
2.9438638e-05
2.9677968e-05
0.0001082792
0.00028828498
0.00049005551
0.00067426563
0.00070375364
0.00050515757
0.00029229388
0.00010766554
2.9381733e-05
2.9025795e-05
0.00010332492
0.00028376338
0.00049578683
0.00069711528
0.00066728206
0.00047020675
0.0002656836
9.5907429e-05
2.841935e-05
2.7541703e-05
8.7685083e-05
0.00024351885
0.0004363538
0.00062627103
0.00057847928
0.00039815977
0.0002195603
7.9200632e-05
2.6402022e-05
2.499873e-05
7.0684407e-05
0.00019462007
0.00035674858
0.00052448748
0.00046345155
0.00031170962
0.00016862437
6.2133384e-05
2.3290433e-05
2.124271e-05
5.3221626e-05
0.0001406441
0.00026113797
0.000392556
0.00042149063
0.00028402064
0.00015462698
5.8077154e-05
2.2078222e-05
2.2881557e-05
6.3049938e-05
0.00016888087
0.00030668399
0.0004493629
0.00047414564
0.00032762978
0.00018258496
6.7919039e-05
2.3626643e-05
2.425932e-05
7.2383267e-05
0.00019465113
0.00034501252
0.00049333551
0.00050482616
0.00035734099
0.00020413401
7.6079821e-05
2.4772514e-05
2.5151317e-05
7.8630723e-05
0.00020994934
0.00036269335
0.00050583024
0.00049375573
0.00035928598
0.00021107158
7.9707553e-05
2.541683e-05
2.5677637e-05
7.8868206e-05
0.00020560596
0.00034353544
0.00046386683
0.00040735691
0.00030620772
0.00018917976
7.5015678e-05
2.5540136e-05
2.1484339e-05
4.3039583e-05
0.00011284603
0.00020017535
0.00028587111
0.00019072246
0.00011162845
5.1668923e-05
2.0394477e-05
1.5685145e-05
1.3161325e-05
1.7356483e-05
4.7336327e-05
0.00010547675
0.00018231023
0.00021207604
0.00013622452
7.0650476e-05
2.4869822e-05
9.2282814e-06
6.7301875e-06
4.2512811e-05
0.00010628215
0.00017962825
0.00025697067
0.0003547822
0.00026232349
0.00016388145
6.7832493e-05
7.6918738e-06
1.0101948e-05
8.6782842e-05
0.0002136556
0.00034365871
0.00046270532
0.00055842907
0.00041500498
0.00025801494
0.00010439174
1.2254384e-05
1.3767394e-05
0.00011982071
0.00029090101
0.00046273173
0.0006202373
0.00065104188
0.0004889139
0.00031406819
0.00013480034
1.4868838e-05
1.5429222e-05
0.00014271943
0.00031441264
0.00048308283
0.00064708115
0.00062215006
0.00045339242
0.00028739387
0.0001279969
1.7067265e-05
1.9239498e-05
0.00010907671
0.0002553023
0.0004195783
0.0005944446
0.00052694685
0.00035459078
0.00020335785
8.3646086e-05
2.2100858e-05
2.5210538e-05
7.4100135e-05
0.0001832247
0.00033380052
0.00051258767
0.00055780516
0.00036208886
0.00019569427
7.7875391e-05
2.8053574e-05
3.0278166e-05
8.8470737e-05
0.00022643169
0.00041734867
0.00063393534
0.00070726281
0.00047296553
0.00025912022
9.9925175e-05
3.1869699e-05
3.2967872e-05
0.00010807668
0.00028252581
0.00051198812
0.00075762734
0.00077654296
0.00052706862
0.00029118715
0.00011074238
3.3708715e-05
3.4348277e-05
0.00010809219
0.00028613851
0.00052059887
0.00076664369
0.00073152944
0.00049749682
0.0002722836
0.00010308817
3.5392525e-05
3.3636494e-05
8.7147935e-05
0.00022836554
0.00042257577
0.00062400742
0.00064556299
0.000442003
0.00025038548
0.00010551414
2.8154239e-05
2.6615999e-05
0.00012329119
0.00030422283
0.0005229312
0.00074546292
0.0007424789
0.00052057251
0.00030335065
0.00012096725
2.3960758e-05
2.1104501e-05
0.00011231866
0.0002839054
0.0004874284
0.00069804711
0.0006707834
0.00046773724
0.00027321702
0.00010758108
1.8618046e-05
1.7278354e-05
0.00010911619
0.0002789845
0.00047717747
0.00068426702
0.0007116844
0.00049373525
0.00028534241
0.00010885862
1.7010021e-05
1.7155745e-05
0.00010590939
0.0002846784
0.00050096716
0.00072898602
0.0007168845
0.00048787672
0.00027328602
9.9979054e-05
1.7119184e-05
1.6754495e-05
9.2827399e-05
0.00025540104
0.00045850386
0.00067576828
0.00060177045
0.00041271883
0.00023232526
8.5180787e-05
1.6708765e-05
1.7489468e-05
6.1343924e-05
0.00016944171
0.00030707526
0.00045116061
0.00050538556
0.00035176989
0.00020174277
7.5565334e-05
1.6318411e-05
1.4996487e-05
9.172399e-05
0.00023481146
0.00039729008
0.00056241011
0.00059874626
0.00042241731
0.00025151672
0.00010085699
1.4012131e-05
1.3913026e-05
8.4035526e-05
0.00021857634
0.00038388983
0.00056317171
0.00048681946
0.0003189771
0.00017212905
6.341308e-05
1.4487518e-05
1.4642533e-05
5.4678531e-05
0.00014753488
0.00027768981
0.00043004552
0.00038825914
0.00024747229
0.00012977787
4.8497936e-05
1.4772419e-05
1.4828843e-05
4.2979772e-05
0.0001132139
0.00021833365
0.00034760864
0.00031049612
0.00019228067
9.879097e-05
3.8233194e-05
1.4941904e-05
1.5182242e-05
3.2456166e-05
8.1801647e-05
0.0001622355
0.00026858408
0.00024613374
0.00014604906
7.3570647e-05
3.0531421e-05
1.5180143e-05
2.2586288e-05
5.2943008e-05
0.00013903033
0.00025369407
0.00038074997
0.00053992066
0.00039199151
0.00023407365
9.0737268e-05
2.8375528e-05
2.8583709e-05
9.7183979e-05
0.00026040267
0.0004487132
0.00062339121
0.00064931813
0.00046157394
0.00026347477
9.6429517e-05
2.8239959e-05
2.7841531e-05
9.1449592e-05
0.00025294905
0.00044992495
0.00064033374
0.00061283943
0.00042549004
0.00023612022
8.5048348e-05
2.722031e-05
2.6352662e-05
7.7934071e-05
0.00021615997
0.00039426915
0.00057511409
0.00053042147
0.00035923103
0.00019481389
7.0605897e-05
2.5238965e-05
2.3874361e-05
6.3282773e-05
0.00017280189
0.00032152537
0.0004801858
0.00042444537
0.00028125332
0.00015027279
5.6009616e-05
2.2223485e-05
2.0283942e-05
4.8509476e-05
0.00012663129
0.00023730866
0.0003615288
0.00028966327
0.00018850533
0.00010115842
4.0396099e-05
1.7875506e-05
1.8573687e-05
4.3417802e-05
0.00010957953
0.0002030052
0.00030874621
0.00032929092
0.00021894878
0.00011908411
4.6902357e-05
1.9194602e-05
1.9971772e-05
5.1102853e-05
0.00013095644
0.00023837504
0.00035370558
0.00037633587
0.00025672653
0.00014231418
5.4997597e-05
2.078666e-05
2.1437925e-05
5.8175642e-05
0.00015145698
0.00027094581
0.00039302178
0.00040203217
0.00027999129
0.00015787317
6.0514846e-05
2.1956148e-05
2.2324383e-05
6.1682561e-05
0.00016060505
0.00028220248
0.00040090414
0.00038817214
0.00027665689
0.00015918054
6.1570281e-05
2.2547989e-05
2.2689738e-05
6.0044871e-05
0.00015261426
0.00026135236
0.00036126102
0.00031670415
0.00023144021
0.00013856242