/*--------------------------------*- C++ -*----------------------------------*\
| =========                 |                                                 |
| \\      /  F ield         | OpenFOAM: The Open Source CFD Toolbox           |
|  \\    /   O peration     | Version:  2306                                  |
|   \\  /    A nd           | Website:  www.openfoam.com                      |
|    \\/     M anipulation  |                                                 |
\*---------------------------------------------------------------------------*/
FoamFile
{
    version     2.0;
    format      ascii;
    arch        "LSB;label=32;scalar=64";
    class       volScalarField;
    location    "1600";
    object      epsilon;
}
// * * * * * * * * * * * * * * * * * * * * * * * * * * * * * * * * * * * * * //

dimensions      [0 2 -3 0 0 0 0];

internalField   nonuniform List<scalar> 
225451
(
0.00031146078
0.000337571
0.00038839852
0.00046499907
0.0005656731
0.00072881445
0.0010919872
0.00058827856
0.00047941904
0.0004100311
0.00035153591
0.00032528391
0.00037423476
0.00044951378
0.00053150114
0.00076491101
0.0009458861
0.00056603614
0.00042307963
0.00034377922
0.00030739598
0.00033967438
0.00039823986
0.00051465563
0.00075685094
0.001505104
0.0017036104
0.00075766647
0.00051337184
0.00040890779
0.00035786761
0.0003525155
0.00039768437
0.00046920503
0.00060280883
0.0011440312
0.0015783256
0.00065912699
0.00049228344
0.00041384775
0.000357548
0.00034445255
0.00039150619
0.00045519997
0.00060636092
0.0015920776
0.0014041143
0.00062104315
0.00048005556
0.00040353477
0.00034194036
0.00031901324
0.00037282612
0.00044901694
0.00053368434
0.00097724297
0.00092318153
0.00053240633
0.00040544352
0.00033321849
0.00029798388
0.00031805108
0.00035641087
0.00045537957
0.00067259862
0.0013480247
0.0014021417
0.0007127663
0.00047385204
0.00036726929
0.00032743643
0.00036614827
0.0004358764
0.00059254798
0.00096106468
0.0021906034
0.0023467493
0.00094260451
0.00059030156
0.00045183695
0.00038924692
0.00037263533
0.00042790455
0.00055463316
0.00089619507
0.0023898848
0.0018908075
0.00074385887
0.00048799229
0.00038935546
0.00034415192
0.00034231938
0.00038345369
0.00046006815
0.0006471571
0.0016211518
0.0018548546
0.00067671493
0.00047676707
0.00039736051
0.00034771167
0.0003391372
0.00038000342
0.00044286544
0.00061725609
0.0017864327
0.0019848924
0.00065632372
0.00046011961
0.00039286675
0.00034969189
0.00035241459
0.00040112212
0.00046819075
0.00064100601
0.0018099823
0.0017209698
0.00067594136
0.00050122467
0.00041872989
0.00035472076
0.00033270923
0.00038678635
0.00046397844
0.00057865722
0.0014305231
0.0011246453
0.00053820657
0.00040343888
0.0003359735
0.00030321106
0.00032360689
0.00036140693
0.00045455334
0.00066692077
0.0014517132
0.002004408
0.00080720215
0.00051332986
0.00040201621
0.00036142271
0.00035427732
0.00039179797
0.00050665262
0.0008087895
0.001925042
0.0019652006
0.00084639321
0.00052202877
0.00039954446
0.00036033292
0.00040712581
0.00048456767
0.00067004486
0.0011512981
0.0029705416
0.0030316603
0.0011110113
0.00066634961
0.00050350474
0.00043289985
0.00041228943
0.00047450769
0.00062118429
0.0010366555
0.0029503796
0.0028806417
0.00096336551
0.00056877227
0.00043379846
0.00037723155
0.00034302263
0.00039372788
0.00051349785
0.00085346206
0.0024598286
0.0021175039
0.00073586797
0.0004585794
0.00036079015
0.0003184325
0.00031893879
0.0003590986
0.00044410435
0.00068555408
0.0020619264
0.0021129239
0.00068408999
0.00045298898
0.0003700834
0.00032337018
0.00032023673
0.00035898282
0.00042451262
0.00061997347
0.0019379528
0.0021457022
0.00066494121
0.00044546394
0.00037431215
0.00033317347
0.00033678188
0.00038202064
0.00046004791
0.00070400512
0.0023599203
0.00218784
0.00068957874
0.00047053719
0.00039719437
0.0003498337
0.00034764705
0.00039987557
0.0004719238
0.00066611588
0.0020058695
0.0020151691
0.00070851326
0.00050269465
0.00041422215
0.00034757654
0.0003195781
0.00037007484
0.00044637077
0.00059111475
0.0018089585
0.0012455207
0.00050844103
0.00037208432
0.00031209808
0.00028362681
0.00029891147
0.00033202103
0.00041252982
0.00060120396
0.0013721524
0.0018114394
0.00072399166
0.00046659392
0.00036958431
0.00033357707
0.00038293202
0.00042179832
0.00053432684
0.00085985527
0.002301606
0.0025552273
0.00095079651
0.00058190487
0.00045418019
0.00041145922
0.00040221112
0.00043860152
0.00056523899
0.0009412128
0.0024755761
0.0024717884
0.00096964471
0.00057356983
0.00043957366
0.00040241784
0.00045746494
0.00054173091
0.00075201795
0.001326177
0.0036200026
0.0035783299
0.0012581043
0.00074357527
0.00056189473
0.00048508131
0.00045797589
0.0005248566
0.00068532574
0.0011518285
0.0033719314
0.0031801346
0.0010492768
0.00062003625
0.00047530146
0.0004151585
0.00037032974
0.00042579506
0.00055903071
0.00096046538
0.0030121364
0.0028079431
0.00089713772
0.00051818153
0.00039187426
0.00033931286
0.00031078789
0.00035867308
0.00047371738
0.00081382535
0.0025064389
0.0022904024
0.00072537378
0.00042936201
0.00033111332
0.00029010427
0.00029231099
0.00033247186
0.00042428594
0.00070692878
0.0023725245
0.0022760696
0.0006747259
0.00042310268
0.00033868414
0.00029427931
0.00029456324
0.00033175444
0.00039909295
0.00060808746
0.0020168957
0.0022214189
0.00065512165
0.00042182118
0.00034821415
0.00030865966
0.00031427792
0.00035760029
0.00043782823
0.00069351082
0.0024127721
0.0024588867
0.00069516711
0.00043324817
0.00035082424
0.0003058603
0.00032470071
0.00037183594
0.00045280929
0.00070629109
0.0024324164
0.0022847386
0.00069017765
0.00045885545
0.00038233742
0.00033325521
0.0003262251
0.00037918621
0.00045349602
0.00066084696
0.0021108509
0.0022055496
0.00070238203
0.0004776643
0.00038851768
0.00032334522
0.00029089284
0.00033442123
0.00040547985
0.00057699388
0.0021167615
0.0013262228
0.00045822095
0.00032238397
0.00027233254
0.00025065706
0.00026101971
0.0002849563
0.00034689343
0.00050374307
0.0012294537
0.0015219218
0.00059944448
0.00039297131
0.00031864844
0.00029259797
0.00033982232
0.00036905388
0.00045736841
0.00072088175
0.0019307476
0.0024231149
0.00086982309
0.0005410904
0.00043490206
0.00040014473
0.00044563185
0.00048866437
0.00061822669
0.0010128707
0.0028433615
0.0031308047
0.0011036424
0.00066175153
0.00051850757
0.00047346677
0.00046014104
0.00049594556
0.00063344975
0.0010775005
0.0030343077
0.0029733197
0.0010901567
0.00062962911
0.00048730439
0.0004530031
0.00051547776
0.00060620009
0.00083992495
0.0014979122
0.0042088648
0.0040434484
0.0013933116
0.00082192918
0.00062473029
0.00054313637
0.0005063652
0.00057589696
0.0007456925
0.0012476925
0.0036932321
0.0033729186
0.0011116674
0.00066394463
0.00051441591
0.00045301682
0.00039967548
0.00045573233
0.00059106857
0.00099986064
0.003115262
0.0029101
0.00090954821
0.00052913372
0.00040423007
0.00035199319
0.00032862547
0.00038040189
0.00050445027
0.00088351129
0.0028575741
0.0027188351
0.00083771258
0.00047151919
0.0003523778
0.00030310341
0.00027958554
0.0003252559
0.00043625922
0.00077436535
0.0025095016
0.0023890128
0.000708706
0.0004008384
0.00030263166
0.00026260505
0.00026615451
0.00030638263
0.00040270363
0.00071289788
0.0025568838
0.0023689407
0.00065518114
0.00039155413
0.00030762517
0.00026547459
0.00026749354
0.00030305029
0.00037042823
0.00058534215
0.0020354281
0.0022271656
0.0006317488
0.00039353545
0.00031964827
0.00028173395
0.00028832512
0.00032958177
0.00040950402
0.00066732314
0.0023924681
0.0024148715
0.00066760242
0.00040650764
0.00032521343
0.00028271935
0.00026829686
0.00030989561
0.00038848937
0.00064069017
0.002334541
0.0023955124
0.00066769349
0.00041223906
0.00033173314
0.00028733339
0.00030138137
0.00034810047
0.0004280036
0.00067820727
0.0023908648
0.0022688728
0.00066086509
0.00042923168
0.00035322115
0.00030485914
0.00029339245
0.00034425273
0.00041726224
0.00062700243
0.0021096115
0.0022789997
0.00066320728
0.00043322688
0.00034839605
0.00028812943
0.00025379266
0.00028881259
0.00035204301
0.00054693458
0.0023043998
0.001343236
0.00039622756
0.000263894
0.00022510048
0.00021131577
0.00021925315
0.00023112596
0.00026982746
0.00038692299
0.0010189971
0.0011331014
0.00044621011
0.00030676672
0.00026285172
0.00025084518
0.00029748875
0.00031286167
0.00036817097
0.0005486867
0.001432536
0.0018544424
0.00068589017
0.00044848179
0.00037597997
0.00035457782
0.00041939225
0.00044908785
0.00054398869
0.00085250363
0.0023738528
0.0029861174
0.0010441259
0.00064082234
0.00051326504
0.0004714658
0.00051985415
0.00056792745
0.00071652765
0.0011864082
0.0034252999
0.0037311251
0.0012704563
0.00075359202
0.0005940314
0.00054618866
0.00052682511
0.00056255873
0.00071174983
0.0012238732
0.0036044796
0.0034787129
0.0012153002
0.00069235013
0.00054256059
0.00051119333
0.00058002257
0.0006771278
0.00093428318
0.0016722758
0.0047501943
0.0044449363
0.0015231918
0.00090253956
0.00069145383
0.00060592401
0.00055596204
0.00062677347
0.00080297646
0.0013296497
0.0039294217
0.0034654827
0.0011534822
0.00070022273
0.00054975611
0.00048891329
0.0004251999
0.00047988263
0.00061317789
0.0010160489
0.0031155175
0.0028689839
0.00091373404
0.00054391941
0.00042195646
0.0003710841
0.00032564262
0.00037352103
0.00048665244
0.0008307607
0.0026625662
0.002711599
0.00083011068
0.00047483579
0.00035900914
0.00031019183
0.00029097414
0.00033921749
0.00045463795
0.00081130534
0.0026828184
0.0025877503
0.00077837076
0.00042891184
0.0003162498
0.0002699364
0.00025067976
0.00029414116
0.00040052254
0.00073041875
0.0024463623
0.0023944506
0.00068233807
0.00037240617
0.00027576067
0.00023694839
0.00024159594
0.0002815236
0.00037984221
0.0007032381
0.0026094536
0.0023960597
0.00062829641
0.00035980166
0.00027808742
0.00023845974
0.00024120574
0.00027477674
0.00034058742
0.00055558069
0.0020088633
0.002183513
0.00059978583
0.00036313514
0.00029085112
0.0002549686
0.00026189469
0.00030067615
0.0003783162
0.00063179495
0.0023234555
0.0023256741
0.0006305363
0.00037625317
0.00029799378
0.00025840359
0.00024732871
0.00028566898
0.0003606174
0.00060428336
0.0022326995
0.0020656565
0.00055966117
0.00033507166
0.00026660653
0.00023148308
0.00024864237
0.00028724924
0.00035970139
0.00059361436
0.0021722352
0.0022424026
0.00061852388
0.0003797701
0.00030482183
0.00026317512
0.00027228985
0.00031635655
0.00039145588
0.00062751296
0.0022529988
0.0021543281
0.00060952222
0.0003885139
0.00031661653
0.00027115245
0.00025641274
0.00030320786
0.00037160574
0.00057329814
0.0020122663
0.002231016
0.00060250187
0.00037980067
0.00030309652
0.00024961484
0.0002152071
0.00024261355
0.00029766964
0.00050553053
0.0023034641
0.001291957
0.0003372098
0.00021020539
0.0001796102
0.00017127787
0.00017611264
0.00017884339
0.00019988396
0.00028265482
0.00078980284
0.00073859421
0.00030275925
0.00022628178
0.00020889566
0.00020959419
0.00026087758
0.00026188593
0.00028450799
0.00037965402
0.00090247919
0.0012278152
0.00049677604
0.0003599522
0.00032463332
0.00031900212
0.00037839299
0.00039178184
0.00044662418
0.00064316826
0.0016637026
0.0022114696
0.00081894218
0.00054544545
0.00046496664
0.00044137266
0.0004939966
0.00053353921
0.00065493935
0.0010477323
0.0029907624
0.0036311231
0.0012429991
0.00075545007
0.00060399664
0.00055431153
0.00060557338
0.00065914197
0.00082830772
0.0013805404
0.0040827594
0.004385568
0.0014545782
0.00085764148
0.00068065718
0.00062964381
0.0006022534
0.00063819795
0.00079997463
0.0013834413
0.0042132956
0.0040209233
0.0013484688
0.00076211631
0.00060524655
0.00057687097
0.00065062812
0.00075395944
0.0010353083
0.001855994
0.0052934609
0.0048304065
0.0016544917
0.000986165
0.00076171202
0.00067289034
0.00060580011
0.00067683578
0.00085772074
0.0014039592
0.0041249647
0.0034940543
0.0011793669
0.00072874933
0.00058020898
0.00052144596
0.00044515035
0.00049665074
0.000624419
0.0010116667
0.003039994
0.0027546153
0.0008973781
0.00054740082
0.00043176654
0.00038403234
0.00033567673
0.0003811069
0.00048873818
0.00081411574
0.0025516074
0.0023533013
0.00074057708
0.00043850112
0.00033855678
0.00029571318
0.00028640984
0.00033095009
0.00043517448
0.0007530488
0.0024433168
0.0024852399
0.00075255824
0.00042455935
0.00031817072
0.00027313477
0.00025707249
0.0003014745
0.00040788063
0.00073999082
0.0024666037
0.0024019002
0.00071518118
0.0003880948
0.00028317347
0.00024005657
0.00022429229
0.0002652077
0.00036569106
0.00067949294
0.0023108366
0.0023063513
0.00064529584
0.00034370803
0.00025045471
0.0002133275
0.00021897766
0.00025816343
0.00035620248
0.00067931185
0.0025416189
0.0023607691
0.00059593957
0.00032865455
0.00025050772
0.0002137178
0.00021666737
0.0002479019
0.00031089084
0.00052152453
0.0019468752
0.0021031317
0.00056269037
0.00033231637
0.00026308425
0.00022963855
0.00023652371
0.00027243183
0.00034632622
0.00059092483
0.0022194888
0.0022049869
0.00058818713
0.0003447686
0.00027088961
0.00023457971
0.00022612753
0.00026087157
0.00033101829
0.00056271093
0.0021031449
0.0019349128
0.00052073378
0.00030827918
0.00024471622
0.00021333296
0.00019788735
0.00022466336
0.00028060813
0.00047202643
0.0017166048
0.0018409111
0.00050366369
0.00030296418
0.000243258
0.00021307096
0.00022672037
0.00026037855
0.00032389247
0.00053241745
0.0019455063
0.0020185161
0.00055437141
0.0003403165
0.0002740437
0.0002372532
0.00024222952
0.0002815108
0.00034848319
0.00056162335
0.0020388146
0.0019609655
0.00054398186
0.00034279187
0.0002783312
0.0002377375
0.00022126614
0.00026251302
0.00032339281
0.00050806745
0.0018373521
0.002066098
0.00052953499
0.00032487504
0.00025924429
0.00021378564
0.00017950639
0.00020063492
0.0002477438
0.00045270469
0.0021060941
0.0011501141
0.00028055084
0.00016523887
0.0001400599
0.00013394145
0.00012792595
0.0001282072
0.00014151378
0.00020036378
0.0005705353
0.00044635609
0.0001922937
0.00015136851
0.00014559686
0.00015161908
0.00020803407
0.00019827325
0.00020024292
0.00023962873
0.00050394002
0.00071007418
0.00033373656
0.00027600692
0.00027041761
0.0002793867
0.00034713422
0.00034321842
0.00035985857
0.00045353494
0.001017592
0.0014348425
0.00059721478
0.0004464735
0.00041040382
0.00040572244
0.00046328142
0.00047918978
0.00054201676
0.00077042016
0.0019764889
0.0028719629
0.001025964
0.00066009519
0.00054918433
0.00051364266
0.00058041232
0.00063061641
0.00078126706
0.0012698465
0.0037040029
0.0043622158
0.0014643902
0.0008837743
0.00070687942
0.0006490303
0.00070295255
0.00076222522
0.00095316251
0.0015949416
0.004819591
0.0051116922
0.0016568448
0.0009739794
0.00077846929
0.00072402398
0.00068650894
0.00072276362
0.00089787831
0.0015566753
0.0048732413
0.0046161661
0.0014914865
0.00083896804
0.00067518857
0.0006499255
0.00072689369
0.00083603381
0.0011423191
0.0020510577
0.0058648641
0.0052274551
0.0017910003
0.0010732259
0.00083530988
0.00074369859
0.00065521914
0.00072583834
0.00091069422
0.0014753119
0.004308081
0.0034838387
0.0011934679
0.00075012009
0.00060538189
0.00054976193
0.00045857946
0.00050546794
0.00062499225
0.00098974526
0.0029093378
0.0025858177
0.00086281237
0.00053946744
0.00043293631
0.00038984025
0.00033948838
0.00038121605
0.00048118303
0.00078304876
0.0024017793
0.0022334206
0.00071872292
0.00043551549
0.00034126298
0.00030099974
0.00026983516
0.00030659178
0.00039185002
0.00064695406
0.0019993395
0.0021004597
0.00066217231
0.00039022445
0.00030020694
0.00026139995
0.00025149093
0.00029165336
0.0003852892
0.00067105626
0.002174324
0.0022085335
0.00067187528
0.00037596201
0.0002802623
0.00023975356
0.00022655032
0.00026694671
0.00036383077
0.00066413445
0.0021987235
0.0021578257
0.00064589418
0.00034834755
0.00025238295
0.00021284148
0.0002002569
0.00023818181
0.0003312788
0.00062062736
0.0021056902
0.0021333922
0.00059800334
0.00031468142
0.00022662043
0.00019167894
0.00019837738
0.00023645254
0.00033224444
0.00064291455
0.0023712717
0.0022656492
0.00055933633
0.00029854592
0.00022497182
0.00019128733
0.00019420511
0.00022281819
0.00028205812
0.00048486599
0.0018549445
0.0019930981
0.00052259125
0.00030205116
0.00023693217
0.00020625965
0.00021287708
0.00024559372
0.00031469952
0.00054707548
0.0020878984
0.0020598926
0.00054300212
0.00031334254
0.00024476095
0.00021200279
0.00020551391
0.00023646938
0.00030108931
0.0005184416
0.0019525339
0.0017864032
0.00048241501
0.00028128139
0.0002227155
0.00019508195
0.00018198078
0.00020564133
0.00025747872
0.00043758418
0.0015786333
0.0013438855
0.00038515764
0.00022991177
0.00018590115
0.00016650868
0.00018042172
0.00020228229
0.00024978412
0.00041565994
0.001465783
0.0015770424
0.00044343335
0.00026852896
0.00021777288
0.00019328761
0.00020401386
0.00023132886
0.00028496559
0.00046676476
0.0016726026
0.0017425532
0.00048227635
0.00029702761
0.00024151854
0.00021136574
0.00021335812
0.00024593677
0.00030225982
0.00048628636
0.0017683405
0.0017094197
0.00047003503
0.00029525616
0.00024080118
0.0002069185
0.0001900418
0.00022430336
0.00027548279
0.00043668603
0.0016052269
0.0018001262
0.00045283612
0.00027146894
0.00021845557
0.00018223135
0.00014828399
0.0001635944
0.00020259538
0.00038782828
0.0017609801
0.00093665296
0.000226476
0.00012825138
0.00010770351
0.00010283741
8.4108672e-05
8.4915542e-05
9.4199147e-05
0.00013357014
0.00037304499
0.00024589948
0.0001083966
8.5381841e-05
8.199346e-05
8.6160842e-05
0.00012509328
0.00011382963
0.00011182677
0.00013161304
0.00027190476
0.00041856134
0.00020744023
0.00017980671
0.00018417238
0.00020037128
0.00029063464
0.00027324964
0.0002679061
0.00030468818
0.00059701761
0.00085290351
0.00041819338
0.0003577562
0.00035663658
0.00036968944
0.00042912413
0.00042453567
0.00044234628
0.00055034212
0.0012179008
0.0017187003
0.00071229945
0.00053228081
0.00048884266
0.00048202839
0.00052973769
0.00055879587
0.00065387383
0.00097730106
0.0026464926
0.0036398371
0.0012628247
0.00079166974
0.00064713597
0.00059868927
0.00067917114
0.00074010256
0.00092129103
0.0015149146
0.0045106622
0.0051811218
0.0017054636
0.0010245689
0.00082154572
0.00075567765
0.00081232194
0.00087734462
0.0010909657
0.0018287858
0.0056408327
0.0059142984
0.0018768092
0.0011026114
0.00088766556
0.00082966291
0.00077975766
0.00081619294
0.0010050404
0.001742908
0.0055909352
0.0052721523
0.0016441646
0.00092259258
0.00075215638
0.0007302746
0.00080837461
0.00092241258
0.0012535396
0.0022553862
0.0064814871
0.0056542897
0.001933683
0.0011633128
0.00091181165
0.0008179836
0.00070324902
0.00077303152
0.00096169146
0.001545855
0.0044989771
0.0034546249
0.0011985448
0.00076439693
0.00062454859
0.00057275279
0.00046464086
0.00050584956
0.00061511849
0.00095282101
0.002740448
0.0023778235
0.00081221124
0.00052029668
0.00042508314
0.00038785188
0.00033656547
0.00037357073
0.00046408649
0.00073848882
0.0022164545
0.0020860673
0.00068293442
0.00042253864
0.0003360004
0.00029949075
0.00027049062
0.00030450642
0.00038411248
0.00062243145
0.0018969568
0.001595518
0.00054297318
0.00034343908
0.00027691669
0.0002492581
0.00024531597
0.00027557718
0.00034676788
0.00055945467
0.0016707045
0.0017632854
0.00057201026
0.00034162303
0.00026511746
0.00023248177
0.00022015471
0.00025466938
0.00033572542
0.00058266868
0.0018466501
0.0018801642
0.00058573361
0.00032915734
0.00024516271
0.00020969397
0.00019897165
0.00023477117
0.00032033381
0.00058170819
0.0018832135
0.0018629292
0.0005699787
0.00030914563
0.00022359445
0.00018811885
0.00017837886
0.00021286391
0.00029706055
0.00055410436
0.0018416159
0.0018909771
0.00054172556
0.00028542953
0.00020420149
0.00017188572
0.00017981081
0.00021652751
0.00030836269
0.00059601232
0.0021204584
0.0021143558
0.00051942324
0.00026975995
0.00020144176
0.00017104558
0.00017384148
0.00019962876
0.00025445973
0.00044662237
0.0017362466
0.0018573881
0.00048076397
0.00027286665
0.00021261254
0.0001849581
0.00019116083
0.00022046956
0.00028407522
0.00050164855
0.0019327612
0.0018943424
0.00049644207
0.00028271195
0.00022000843
0.00019095619
0.00018586939
0.00021301668
0.00027189112
0.00047479269
0.0017844797
0.0016248591
0.00044299488
0.00025553628
0.00020157549
0.00017732509
0.00016585814
0.0001867398
0.00023440063
0.00040147066
0.0014310977
0.0012149146
0.00035297029
0.00020967001
0.00016926462
0.00015215482
0.00013635316
0.0001495817
0.00018224444
0.00029920262
0.00098238424
0.0010910662
0.00032729306
0.00019973338
0.00016407399
0.00014903524
0.00016104198
0.00017800487
0.00021653599
0.00035366475
0.0011951486
0.001290251
0.00037745741
0.00023202407
0.00019078837
0.00017178079
0.00018034534
0.00020148148
0.00024508052
0.0003970863
0.0013728587
0.0014348036
0.00041004933
0.000254002
0.00020871439
0.00018553574
0.00018569626
0.00021055471
0.00025622127
0.00041181335
0.0014604907
0.0014163565
0.00039531301
0.00024793326
0.00020414238
0.00017818947
0.0001618541
0.00018812265
0.00022862918
0.00036252386
0.0013310298
0.0014559976
0.00037943628
0.00022293609
0.00018068806
0.00015415146
0.00012097021
0.00013079172
0.00016234772
0.00031491562
0.0013377768
0.00068539414
0.00017434094
9.8119533e-05
8.2117866e-05
7.8704932e-05
5.2868332e-05
5.3560085e-05
5.9539683e-05
8.4993963e-05
0.00023615906
0.0001183894
5.3090934e-05
4.1551052e-05
3.9484091e-05
4.1096834e-05
6.0788118e-05
5.6478906e-05
5.8534554e-05
7.5379217e-05
0.00017483715
0.00032692168
0.00013443439
0.0001038234
0.00010115538
0.00011043154
0.00018689238
0.00016966706
0.00016887837
0.00020983823
0.00049490347
0.00062413546
0.00029659226
0.00025667731
0.00026355922
0.00028504909
0.00037490548
0.00035442202
0.00034558687
0.00038650202
0.00073915131
0.0010506472
0.0005081817
0.00043168556
0.00042820672
0.00044122563
0.00049479335
0.00049272843
0.0005190449
0.00065818441
0.0014990991
0.0023571236
0.0009086707
0.00063759319
0.00056248847
0.00054228826
0.00060991668
0.00065327056
0.00078427181
0.0012165535
0.0034313487
0.0045015286
0.0015234144
0.00093751155
0.00075809233
0.00069674658
0.00078971853
0.00086075502
0.0010723139
0.0017768382
0.0054006265
0.0060807539
0.0019627843
0.0011768768
0.00094771314
0.00087427643
0.00093407196
0.001004717
0.0012416086
0.0020803101
0.0065415581
0.0067882016
0.0021129604
0.0012433446
0.0010083635
0.00094689551
0.00088221865
0.00091839059
0.0011208862
0.0019401945
0.0063636431
0.0059858347
0.0018049162
0.0010123168
0.00083583989
0.00081784602
0.00089466543
0.0010121296
0.0013668252
0.0024641593
0.0071467138
0.0061144705
0.00208099
0.0012556232
0.00099088661
0.00089561926
0.00074873739
0.00081735305
0.001009716
0.0016150073
0.0047036525
0.0034143873
0.0011951242
0.00077084781
0.00063650916
0.00058890965
0.00046255992
0.00049740343
0.00059497515
0.00090239583
0.0025412531
0.0021404126
0.00074755759
0.00049058423
0.00040835805
0.00037783532
0.00032376303
0.00035450298
0.00043301854
0.00067569156
0.0020015707
0.0019469177
0.00063877905
0.00039886622
0.00032023338
0.00028794743
0.00026266021
0.00029415342
0.00036950433
0.00059828907
0.0018388596
0.0016182635
0.00053849958
0.00033829276
0.00027319432
0.00024715906
0.00026239148
0.00027888807
0.00033035274
0.00050266224
0.0014693716
0.0012964456
0.00047017382
0.00031610105
0.00026758352
0.00025081222
0.00023275709
0.00025268957
0.0003045328
0.00046157072
0.0012646167
0.0013665654
0.00047398219
0.00029563229
0.00023609008
0.00021174543
0.00019293571
0.00022104901
0.00028771791
0.0004876229
0.0014775761
0.0015169632
0.00049296288
0.00028271791
0.00021229576
0.00018239117
0.00017378792
0.00020451562
0.00027725067
0.00049365414
0.0015350787
0.0015316627
0.00048817374
0.00027026069
0.00019656472
0.00016562172
0.00015846052
0.00018908802
0.00026291096
0.00048095312
0.0015348727
0.0015982754
0.00047811447
0.00025610949
0.00018318486
0.00015385264
0.00016331809
0.00019853446
0.00028481093
0.00054041291
0.0018132117
0.0019119761
0.00047695098
0.00024250793
0.00017983633
0.00015281932
0.00015545721
0.00017828888
0.00022826213
0.00040739663
0.0015926515
0.001698129
0.00043794738
0.00024501983
0.00019014348
0.00016566584
0.00017136037
0.00019713856
0.00025478699
0.00045545127
0.0017562093
0.001710111
0.0004502194
0.00025341467
0.00019683149
0.00017150921
0.00016748425
0.00019116674
0.00024493446
0.00043238081
0.0016018988
0.0014529821
0.00040276961
0.00023067497
0.00018140794
0.00016007659
0.00015002024
0.00016841145
0.00021185956
0.00036445079
0.0012760897
0.001080447
0.00031978492
0.0001896237
0.00015286415
0.00013782271
0.00012351586
0.0001350686
0.00016465489
0.00027015992
0.00087147869
0.00065913994
0.00021708145
0.00013771657
0.00011552063
0.00010733155
0.00011869492
0.00012825412
0.00015298395
0.0002414577
0.00074082855
0.00082593912
0.00026525758
0.00016781653
0.00014066671
0.00012974213
0.00013996848
0.00015228557
0.00018172473
0.0002876612
0.00091176965
0.00099064742
0.0003077428
0.00019432981
0.00016270749
0.00014886822
0.00015552961
0.00017101326
0.00020464182
0.00032429208
0.001059645
0.0011120273
0.00033527574
0.00021124467
0.00017601294
0.00015887422
0.00015766176
0.00017618058
0.00021200405
0.00033690363
0.0011353343
0.0011022126
0.00032355263
0.00020413432
0.00016950489
0.00015017297
0.00013545885
0.00015482271
0.00018641571
0.00029543766
0.0010314252
0.0010614539
0.00030121418
0.00017831663
0.00014543273
0.00012709364
9.5745168e-05
0.00010202443
0.00012678938
0.00023789025
0.00090148733
0.00044708817
0.00012633342
7.359815e-05
6.2361642e-05
6.0465266e-05
3.5106839e-05
3.5177628e-05
3.8802967e-05
5.5411057e-05
0.00014940585
5.3869447e-05
2.5869591e-05
2.0916528e-05
2.0264518e-05
2.1224394e-05
2.7008894e-05
2.5517771e-05
2.6699969e-05
3.4663122e-05
8.0252529e-05
0.00019013078
7.3862002e-05
5.373242e-05
5.002853e-05
5.2651226e-05
9.8501294e-05
9.1496555e-05
9.6612367e-05
0.00013200014
0.00034854662
0.00050306841
0.00019788862
0.00015209728
0.00014955114
0.00016493538
0.00025959235
0.00023500433
0.00022910063
0.00027689053
0.00064025638
0.00072426126
0.00036520593
0.0003251051
0.0003353856
0.00035939221
0.00043799466
0.00041918392
0.00041542404
0.0004770509
0.00095530495
0.0013712685
0.00062416399
0.00050876361
0.00049252856
0.00050060033
0.0005519001
0.00056297892
0.00061895778
0.00084147854
0.002086169
0.0031123737
0.0011380489
0.00076189289
0.00065116497
0.00061630719
0.00070384054
0.00076159524
0.00093013035
0.0014811468
0.004308575
0.0054367676
0.0017983155
0.00109312
0.00087968607
0.00080646927
0.00091161359
0.0009916006
0.0012321697
0.0020492827
0.0063564738
0.007046364
0.0022330657
0.0013402381
0.0010854467
0.0010051616
0.0010687125
0.0011445476
0.0014048351
0.0023470933
0.0075093402
0.0077213967
0.0023629009
0.0013957013
0.0011406265
0.0010761838
0.00099434599
0.0010293648
0.0012447701
0.0021459076
0.007182527
0.0067497414
0.0019705615
0.0011073234
0.00092603904
0.00091275953
0.0009855265
0.0011043718
0.0014804131
0.0026731138
0.0078476235
0.0066006527
0.0022300003
0.001349487
0.0010726541
0.00097705164
0.00079061581
0.00085768538
0.0010533068
0.0016802487
0.0049184692
0.0033633929
0.001181811
0.00076796163
0.00063957619
0.00059631481
0.00045122812
0.00047952088
0.00056466922
0.0008403817
0.0023171369
0.0018665761
0.00066900605
0.00045037647
0.00038236015
0.00035899494
0.00030259731
0.00032751149
0.00039472439
0.00060784599
0.0017900249
0.0018364789
0.00059467073
0.00037033866
0.00029838861
0.00026976497
0.00024929606
0.00027897729
0.00035174994
0.00057757812
0.0018215336
0.0017011957
0.00054279595
0.00033231858
0.0002659926
0.00024043346
0.00026259123
0.00028144721
0.00033950165
0.00053901883
0.0016835793
0.0019297154
0.0005540591
0.00032274327
0.00026203572
0.00024524804
0.00026744812
0.00027801022
0.00032410143
0.00050241251
0.0015685885
0.0012204805
0.00044568394
0.00031556838
0.00028264622
0.0002774428
0.00026043669
0.00026609012
0.00029533908
0.00040222819
0.0010017919
0.00098820416
0.00037984004
0.00025952631
0.00022148419
0.00020903956
0.00017154676
0.0001917259
0.00024200601
0.00039200299
0.0011161748
0.0011518354
0.00039768234
0.00023703717
0.00018152495
0.00015784707
0.00015084086
0.00017602329
0.00023472585
0.00040267833
0.0011800455
0.0011881221
0.0004026234
0.00023162962
0.00017109049
0.00014512036
0.00014036741
0.00016675682
0.00022886325
0.00040333628
0.0012090962
0.0012803262
0.00040942726
0.00022694882
0.00016363044
0.0001375619
0.00014901862
0.00018263811
0.0002616739
0.00047782875
0.0014740708
0.001665562
0.00043255871
0.00021699675
0.00016008288
0.00013644598
0.00013888198
0.00015868892
0.00020352463
0.00036752123
0.0014251048
0.0015160815
0.00039451073
0.00021862266
0.00016945355
0.0001482425
0.00015339165
0.00017560516
0.00022704955
0.00040910973
0.0015586328
0.0015085627
0.00040655375
0.00022680771
0.00017566666
0.00015375782
0.00015031628
0.00017100257
0.00021966456
0.00038944255
0.0014068163
0.0012719394
0.0003619711
0.00020706876
0.00016253534
0.00014380824
0.00013488229
0.00015105248
0.00019026009
0.00032678673
0.0011137204
0.00093993248
0.00028587299
0.00017021811
0.00013714047
0.00012393027
0.00011098296
0.00012104342
0.00014748935
0.00024044489
0.00075599138
0.00057314372
0.00019225591
0.00012275219
0.00010316408
9.6221054e-05
7.8861331e-05
8.2845033e-05
9.5467965e-05
0.00014115514
0.00039116679
0.00043873411
0.00015919591
0.00010771178
9.3154867e-05
8.8082453e-05
9.7984716e-05
0.00010426192
0.00012082431
0.00017805666
0.00048370842
0.0005448876
0.000197559
0.00013340395
0.00011501401
0.00010777125
0.0001163898
0.00012451979
0.00014469138
0.00021638262
0.00061651681
0.00067909938
0.00023310126
0.00015474403
0.00013276419
0.00012354561
0.00012854371
0.00013907438
0.00016287468
0.00024699931
0.00073293809
0.0007725031
0.00025644308
0.00016786812
0.00014235129
0.00013031843
0.00012803697
0.000141442
0.00016802714
0.00025832235
0.00078718695
0.00075481632
0.00024842989
0.0001614888
0.0001351493
0.00012082654
0.00010876149
0.00012325713
0.00014771355
0.00022704953
0.00068574037
0.00062724155
0.00021801189
0.00013856641
0.00011412776
0.00010087686
7.4159645e-05
7.8754027e-05
9.614646e-05
0.00016110433
0.00048802056
0.0002569545
8.6913935e-05
5.5325299e-05
4.7654242e-05
4.6518195e-05
2.6502129e-05
2.6318857e-05
2.9083678e-05
4.1516163e-05
0.00010968022
3.4679937e-05
1.7060225e-05
1.408426e-05
1.391926e-05
1.4832177e-05
1.2332264e-05
1.1035151e-05
1.0651905e-05
1.2252896e-05
2.305168e-05
6.5587764e-05
2.8909307e-05