/*--------------------------------*- C++ -*----------------------------------*\
| =========                 |                                                 |
| \\      /  F ield         | OpenFOAM: The Open Source CFD Toolbox           |
|  \\    /   O peration     | Version:  2306                                  |
|   \\  /    A nd           | Website:  www.openfoam.com                      |
|    \\/     M anipulation  |                                                 |
\*---------------------------------------------------------------------------*/
FoamFile
{
    version     2.0;
    format      ascii;
    arch        "LSB;label=32;scalar=64";
    class       volScalarField;
    location    "1600";
    object      k;
}
// * * * * * * * * * * * * * * * * * * * * * * * * * * * * * * * * * * * * * //

dimensions      [0 2 -2 0 0 0 0];

internalField   nonuniform List<scalar> 
225451
(
0.0013232658
0.0010989445
0.0010047921
0.00089128683
0.00071278341
0.00030698741
0.00047550082
0.00095573413
0.0011476023
0.0012351119
0.0012847078
0.0010408949
0.00094848975
0.00085456308
0.000686153
0.00035642078
0.000420605
0.00064326889
0.00076788099
0.00087249263
0.0009975769
0.0011129023
0.0010153648
0.00091105465
0.00077251445
0.00050949252
0.00055590094
0.00081416457
0.00099430297
0.0011364168
0.0012631942
0.0012264291
0.0011040282
0.0009550066
0.00074475913
0.00041590564
0.00061079626
0.0010507725
0.0012768972
0.0013888342
0.0014509216
0.0015561419
0.0015262653
0.0014245644
0.0011882823
0.00071177902
0.0006031076
0.001045148
0.0012447959
0.001322096
0.0013510951
0.0010386797
0.00094553667
0.00085074427
0.00067343063
0.00042616734
0.0004220082
0.00060096824
0.0007278971
0.00084171863
0.00098058631
0.0010631664
0.00090145175
0.00077703722
0.00066580314
0.00054581617
0.00055117511
0.00071690299
0.00082194924
0.00093287415
0.0010770315
0.0012199675
0.001116333
0.0010135405
0.00088641423
0.00066112555
0.0006940601
0.00093905844
0.0011205323
0.0012680294
0.0014015828
0.0014295011
0.0012790629
0.0011144492
0.00091808612
0.0007014258
0.00059644956
0.00079254968
0.00098204713
0.0011409685
0.0012866431
0.0012526681
0.0011078475
0.00094176548
0.00072898445
0.00052482779
0.00068603692
0.001038189
0.0012729794
0.001410477
0.0015011741
0.0016604144
0.0015989439
0.0014640063
0.0012071769
0.00077578277
0.00083237734
0.0012654685
0.0015509538
0.0017107867
0.001779079
0.0016485391
0.0016170752
0.0014978718
0.0012399287
0.00078170111
0.0006896382
0.0010851681
0.0013013912
0.0013943546
0.0014245193
0.0010834821
0.00097460171
0.00085531263
0.00065439799
0.00053721321
0.00046995729
0.00057921643
0.0007209634
0.00085196321
0.0010012126
0.0010831484
0.00091804459
0.00077948405
0.00064866496
0.00055887549
0.00069379044
0.00071886841
0.00085413567
0.0010145146
0.0012030011
0.0011843963
0.00099233108
0.00084223347
0.00072926621
0.00069351734
0.00069240445
0.00077934093
0.00088032711
0.0010112841
0.0011818458
0.0013518446
0.0012316514
0.0011166803
0.00098840845
0.0008134495
0.00082571157
0.0010467791
0.0012411806
0.0014052207
0.0015548209
0.0015864545
0.0014202222
0.0012379698
0.0010237926
0.00080841005
0.00079578928
0.00097781248
0.0011931205
0.0013780597
0.0015467652
0.0013925812
0.0012381403
0.0010697765
0.00087413957
0.00071589712
0.00064509746
0.00075367824
0.00093755591
0.0011001487
0.0012518743
0.0012178899
0.0010648735
0.00089592765
0.00069608019
0.0006177805
0.00075106938
0.00099591787
0.0012207269
0.0013639567
0.0014659884
0.0016589817
0.0015807349
0.0014336844
0.001178867
0.00081942524
0.00087161326
0.0012430537
0.0015293597
0.0017043309
0.0017942229
0.00183823
0.0017447991
0.0015595335
0.0012628828
0.00091755295
0.00088163521
0.001277108
0.0015712519
0.0017408641
0.0018102091
0.0016614438
0.0016323978
0.001506524
0.0012441622
0.00083763994
0.00076523119
0.0010806051
0.0012977458
0.0013953585
0.0014209861
0.0010661613
0.00094990251
0.00081987913
0.00061671562
0.00062441068
0.00050084369
0.00053654264
0.0006792884
0.00081531966
0.00096526356
0.0010331165
0.00087310523
0.00073466169
0.00060159293
0.00053597262
0.00064566493
0.00066906588
0.00080477981
0.00096110268
0.0011417305
0.0012835669
0.0010780815
0.00089773888
0.00074899061
0.00075786186
0.00081619957
0.000799464
0.00094922035
0.0011352791
0.0013507118
0.0013310976
0.0011078709
0.00092709678
0.00080056133
0.0008208809
0.00080778696
0.00084157259
0.00094895656
0.0011046214
0.0013043815
0.0014950524
0.0013555067
0.0012246572
0.0010879489
0.00092947704
0.00092302309
0.0011482319
0.0013625429
0.0015468211
0.0017157906
0.0017455373
0.0015606097
0.0013577527
0.0011201735
0.00088392835
0.0008499389
0.0010683939
0.0013085019
0.0015129162
0.0016984106
0.0016103056
0.0014319372
0.0012346517
0.0010036183
0.00081976997
0.00078255581
0.00091846592
0.0011242875
0.0013035914
0.0014671942
0.0013189353
0.0011677645
0.0010040288
0.00081922823
0.00072554388
0.00068114486
0.00070656232
0.00087686926
0.0010357358
0.0011861218
0.0011525779
0.00099953221
0.0008351253
0.00065516493
0.00068018576
0.00079090139
0.00093404965
0.0011414386
0.0012827829
0.0013892043
0.0015968252
0.0015103831
0.0013626772
0.0011214651
0.00084040814
0.00088974787
0.0011897208
0.0014633624
0.001639473
0.0017397211
0.0017913857
0.001685384
0.0014978939
0.0012121385
0.00092931986
0.00093921636
0.0011822628
0.0014662185
0.0016552335
0.0017624788
0.0017999009
0.0017063437
0.0015209288
0.0012286353
0.00093417994
0.00090521691
0.0012366005
0.0015237081
0.0016927314
0.0017616608
0.0016050459
0.0015751886
0.0014488953
0.0011953761
0.00086589458
0.00081268439
0.0010260973
0.0012356515
0.0013366623
0.0013641815
0.001015868
0.00089265697
0.00075386287
0.00055963588
0.00069297746
0.00052219325
0.00047904964
0.0006182702
0.00075890329
0.00090972582
0.00097089977
0.00081338326
0.00067188029
0.00053601332
0.00049822661
0.00057504248
0.00059924081
0.00073850932
0.0008948696
0.0010700593
0.0012002034
0.001003377
0.00082671363
0.00067616077
0.00067423368
0.00078473481
0.00076565642
0.00093232022
0.0011320021
0.0013526831
0.0014518737
0.001218849
0.0010104641
0.00084011461
0.00087293424
0.00093500751
0.00088847178
0.0010603668
0.0012769052
0.0015221559
0.0014958334
0.0012409972
0.0010271872
0.00087861215
0.00094066827
0.0009142156
0.0009029884
0.0010238994
0.0012089974
0.0014398844
0.0016434747
0.0014824469
0.0013332653
0.0011841805
0.0010283491
0.0010017668
0.0012405641
0.0014777198
0.0016845323
0.0018755675
0.001894757
0.0016889988
0.00146408
0.0012016476
0.00093943765
0.00088404628
0.0011398741
0.0014047519
0.0016292464
0.0018330574
0.0017331763
0.001539133
0.0013239591
0.0010687884
0.0008383841
0.00080111821
0.00099554072
0.0012353451
0.0014378863
0.0016195075
0.0015042518
0.0013360708
0.0011496336
0.00093342919
0.00079150403
0.00076602786
0.00085152528
0.0010437641
0.0012138513
0.001369122
0.0012312701
0.0010861014
0.00093001609
0.00075988124
0.0007264641
0.00070131028
0.00065671881
0.00081018941
0.00096179517
0.0011071535
0.0010747765
0.00092603325
0.00076987738
0.00061229093
0.00071607594
0.00081311335
0.00086549879
0.0010532923
0.0011896922
0.0012965639
0.0015067406
0.001417332
0.0012737694
0.0010500888
0.00084533589
0.00089110511
0.0011193526
0.0013753629
0.0015466885
0.0016506
0.0017055718
0.001594454
0.0014111676
0.0011420493
0.00092431863
0.00092834143
0.0011154774
0.0013847963
0.0015708926
0.0016844154
0.0016101604
0.0014969242
0.0013132544
0.0010522196
0.0009078795
0.00092320566
0.00111241
0.0013855189
0.0015704726
0.0016764354
0.0017022487
0.0016103085
0.0014303641
0.0011518214
0.00092364977
0.00090099825
0.0011528085
0.0014236196
0.0015869249
0.0016552046
0.00149809
0.0014648787
0.0013413604
0.0011046648
0.00086569218
0.00083093647
0.00093270143
0.0011308641
0.0012348162
0.0012683526
0.00094289072
0.00081411623
0.00066877085
0.00049689575
0.00073382071
0.00052691279
0.0004154499
0.00054839177
0.00069334642
0.00084420664
0.00091541643
0.00075828881
0.00060879696
0.00046419377
0.00044006867
0.00047309289
0.00052663463
0.00068192075
0.00084623424
0.0010193202
0.0011428124
0.00095061148
0.00076919453
0.00060248633
0.00055342945
0.00065742623
0.00068540303
0.00086225718
0.0010614408
0.0012742561
0.0014179278
0.0011828785
0.00096409478
0.00077557286
0.00077500566
0.00090215599
0.00086730863
0.0010558863
0.0012827227
0.001530249
0.0016466281
0.0013832391
0.0011426069
0.00094472647
0.0009885936
0.0010513662
0.00098840372
0.0011885033
0.0014390143
0.0017161746
0.0016768458
0.0013898674
0.0011416303
0.00096595924
0.0010554657
0.0010154435
0.00096751917
0.0011069977
0.0013242436
0.0015870579
0.0017967731
0.0016126094
0.0014433688
0.0012794811
0.0011150843
0.0010673331
0.0013273518
0.0015885582
0.0018190913
0.002033905
0.0020326764
0.001805154
0.0015579837
0.0012710205
0.00097935361
0.00090036531
0.001193196
0.0014810692
0.0017249472
0.001947376
0.0018311281
0.0016216291
0.0013898844
0.0011132601
0.00083856314
0.0007936099
0.0010381017
0.0012985262
0.0015155623
0.0017100805
0.0015868663
0.0014070425
0.0012051544
0.00096331487
0.00075500925
0.00076424694
0.00091954078
0.001141089
0.0013298144
0.0014985717
0.0013890713
0.0012320339
0.0010580779
0.00085963655
0.00075892828
0.00074128334
0.00078120483
0.00095620035
0.0011158192
0.0012619073
0.0011373804
0.00099947239
0.00085261498
0.00069894204
0.00071440365
0.00070273904
0.00060673885
0.00074234642
0.00088479059
0.0010233422
0.00099317902
0.00085112611
0.00070546108
0.00057051842
0.00072640611
0.00081971632
0.00079617671
0.000963739
0.0010937807
0.0011989804
0.0014047263
0.0013150444
0.0011776913
0.00097287705
0.00083801814
0.0008796812
0.0010405827
0.0012769073
0.0014408389
0.0015450278
0.001600315
0.0014880151
0.0013119742
0.0010621929
0.00090696758
0.00090594483
0.0010381411
0.0012895902
0.0014694952
0.0015852566
0.0015218102
0.0014051632
0.0012261862
0.00098094526
0.00088191141
0.00083783668
0.00090075337
0.001134217
0.0013094615
0.001426225
0.001500982
0.0013887848
0.0012104315
0.00096343725
0.00086577543
0.00088391168
0.0010148012
0.0012712218
0.0014491556
0.0015531308
0.0015663959
0.0014765442
0.0013049066
0.0010457877
0.00088825356
0.00087078718
0.0010402649
0.0012897798
0.0014449363
0.0015126168
0.0013609418
0.001323764
0.0012046552
0.00098850226
0.00083915243
0.00081958477
0.0008191342
0.0010030327
0.0011086573
0.0011485549
0.0008534679
0.00072383892
0.00057742231
0.00043653164
0.00073421674
0.00051377774
0.00035591807
0.00047746154
0.00062008096
0.00076483619
0.00085463978
0.00070393652
0.00055374287
0.00040408819
0.00037175134
0.00035630438
0.00047801442
0.00065197156
0.0008208545
0.00098907127
0.0011317316
0.00094360019
0.00075469524
0.00056071572
0.0004075976
0.00050035066
0.00063517483
0.00084146488
0.0010496778
0.0012595945
0.0013705049
0.0011410265
0.00091776085
0.00070681607
0.00061244577
0.00074004441
0.00078559294
0.0009999039
0.0012380164
0.0014872867
0.0015894849
0.0013293138
0.0010863531
0.00088001612
0.00090385358
0.0010277964
0.00098448591
0.0012026292
0.0014618856
0.0017395266
0.0018694418
0.0015730205
0.0012957357
0.0010632685
0.0011115084
0.0011711747
0.001100287
0.0013341473
0.0016218567
0.0019327172
0.0018743026
0.0015545495
0.0012702529
0.0010634296
0.0011714225
0.0011186092
0.0010363773
0.0011989839
0.0014507885
0.0017461245
0.0019551527
0.0017461859
0.0015552911
0.0013755396
0.0011987807
0.0011284251
0.0014103666
0.001695842
0.0019509053
0.0021908009
0.0021577262
0.0019081416
0.0016391435
0.0013292021
0.0010118523
0.0009055397
0.0012275054
0.0015350846
0.0017968711
0.0020374819
0.0018982462
0.0016741686
0.0014279944
0.0011342625
0.00082508581
0.00077240324
0.0010573106
0.0013337153
0.0015628659
0.001769199
0.0016477641
0.0014578923
0.0012450586
0.00098720641
0.00073384746
0.00069526069
0.00091379397
0.001152402
0.0013501088
0.0015257218
0.0014594111
0.0012931255
0.0011061162
0.00088414612
0.00071293924
0.00072109715
0.00083953988
0.0010413918
0.0012159914
0.0013723425
0.0012689965
0.0011230528
0.00096199046
0.00078145276
0.00071761627
0.00070541172
0.00071009034
0.00086732516
0.0010151223
0.001151601
0.001042077
0.00091194659
0.0007752281
0.00063824781
0.00068787305
0.0006855735
0.00055797609
0.00067610958
0.00080831597
0.00093921557
0.00091242723
0.00077847503
0.00064472692
0.00053120033
0.00071402003
0.00081184465
0.00072906261
0.00087653457
0.00099958502
0.0011019857
0.0012994685
0.0012108665
0.0010804453
0.00089450574
0.00082080239
0.00085823388
0.0009588845
0.0011750817
0.0013306894
0.0014335139
0.0014872393
0.0013757542
0.00120816
0.0009786066
0.00088011606
0.00087478898
0.00095650936
0.0011887102
0.0013609461
0.0014768098
0.0014226777
0.0013048248
0.00113232
0.00090477519
0.00084792747
0.00080255788
0.00083258276
0.0010500913
0.001220084
0.0013390569
0.0012359647
0.0011156465
0.00094951554
0.0007463377
0.00074137614
0.00077630072
0.0008057157
0.0010240637
0.0011940418
0.0013112322
0.0013725901
0.0012607273
0.0010889178
0.00085952847
0.00080483593
0.00082446257
0.00090151598
0.0011381404
0.001308228
0.0014111513
0.0014132589
0.0013244994
0.0011616294
0.00092437337
0.00083143507
0.00081824202
0.00091412808
0.0011409417
0.0012879173
0.0013558247
0.0012138747
0.0011727043
0.0010580615
0.00086278972
0.00079007911
0.00077903615
0.00070120274
0.00086891057
0.00097524144
0.0010207465
0.00075267993
0.0006273881
0.00048720715
0.00038076071
0.00069223604
0.00047588255
0.00029870672
0.00040201766
0.00053201514
0.00066144826
0.00073282656
0.00060443631
0.00047403801
0.00034043161
0.0002998048
0.00025519282
0.00041893822
0.00057898512
0.00072690128
0.00087462421
0.0010754331
0.00089946257
0.00071992916
0.00052271907
0.00027686009
0.00034785488
0.00061526999
0.00084563626
0.0010579581
0.0012633707
0.0013945048
0.0011663158
0.00093129897
0.00068382705
0.00044200421
0.00055549181
0.00073639214
0.00098411612
0.0012317446
0.0014777327
0.0015591454
0.0012959342
0.0010382769
0.00079541771
0.00068722703
0.00088042182
0.00088260156
0.0011072441
0.0013650812
0.0016370603
0.0018000486
0.001511135
0.001237609
0.0010038658
0.0010420797
0.001161384
0.0011194956
0.0013754839
0.0016723789
0.001983117
0.0021200762
0.0017885212
0.0014708322
0.0011973047
0.0012415283
0.0012971958
0.0012246874
0.0014976916
0.0018253505
0.0021712595
0.0020882603
0.0017352926
0.0014134393
0.0011714515
0.0012908593
0.0012265426
0.0011110638
0.0013007728
0.001589141
0.0019173636
0.0021192183
0.0018837094
0.0016694639
0.0014729882
0.0012836878
0.0011896269
0.0014919532
0.0018016793
0.0020818093
0.002347612
0.0022706703
0.0019996255
0.0017098587
0.001379055
0.0010418274
0.00090400158
0.0012446928
0.0015678993
0.0018453272
0.0021026327
0.0019322912
0.0016954818
0.0014377738
0.0011321506
0.00080139113
0.00074050817
0.001052447
0.0013392899
0.0015775234
0.0017938517
0.0016786978
0.0014803728
0.0012593451
0.00099061154
0.00070474282
0.00067130892
0.00092936646
0.0011808308
0.0013873659
0.0015714
0.001463851
0.0012893468
0.0010940731
0.00085817204
0.00062348822
0.000644455
0.00083182205
0.0010515277
0.0012359477
0.0014004647
0.001326902
0.0011725804
0.0009999104
0.00079829094
0.00065957896
0.00066651285
0.00075430697
0.00093661693
0.0010972486
0.0012420361
0.0011460898
0.0010102526
0.00086191167
0.00070051625
0.00066468547
0.00065681237
0.00063927906
0.00077949982
0.0009159374
0.0010438865
0.00094861756
0.00082634941
0.00070009959
0.00057888375
0.00064659554
0.00065094428
0.000511118
0.00061318437
0.00073454814
0.00085737353
0.00083503044
0.00071013506
0.00058922043
0.00049477954
0.00068186623
0.00078998954
0.00066561773
0.00079351585
0.00090926114
0.0010082783
0.0011955083
0.0011086097
0.00098523695
0.00081757546
0.00079486395
0.00082824352
0.00087751572
0.0010739345
0.0012210828
0.0013218277
0.0013728295
0.001263094
0.0011042693
0.00089490839
0.00084525387
0.00083628285
0.00087432205
0.0010868674
0.0012508138
0.0013656374
0.0013190243
0.0012013709
0.0010363507
0.00082742715
0.00080724987
0.00076123848
0.00076130257
0.0009621586
0.0011257209
0.0012451723
0.0011526778
0.001031593
0.00087193888
0.00068525567
0.00070137008
0.00063026086
0.00060365179
0.00077368858
0.00092714261
0.0010487246
0.0011201866
0.00099916204
0.00083982866
0.00065504164
0.00066755291
0.00070051083
0.00070374991
0.00090177312
0.0010649601
0.001183098
0.0012333911
0.0011206352
0.00095552125
0.00074676805
0.00072799164
0.00074780954
0.00078043676
0.0009957462
0.0011577983
0.0012612055
0.001255415
0.0011658004
0.0010113
0.00079710858
0.00075649657
0.00074699318
0.00078440762
0.00098827998
0.0011279066
0.0011980432
0.0010686879
0.0010222944
0.00091151559
0.00073665377
0.00072230707
0.00071104543
0.00058589339
0.00073561217
0.00084228675
0.00089443428
0.00064976336
0.00053110966
0.00040346103
0.00032815325
0.00061490674
0.00041548712
0.0002447892
0.00032567788
0.00043776668
0.00054887624
0.00056676362
0.00046929768
0.00036894232
0.00026458475
0.00022631161
0.00017206988
0.00031159165
0.00042861529
0.00053453433
0.00064255226
0.00084438839
0.00070052947
0.00056165541
0.00040911482
0.0001838365
0.00024401238
0.00054370708
0.00074911815
0.00093530979
0.0011222177
0.0013683009
0.0011466911
0.00091668953
0.00066180497
0.00030971954
0.00039308094
0.00073174758
0.0010130881
0.0012708763
0.0015155608
0.0015834664
0.001322336
0.0010521883
0.00076955847
0.00049828056
0.00062647419
0.00080858942
0.0010819269
0.0013592086
0.0016358738
0.0016771866
0.0013937169
0.0011212012
0.00087652729
0.00083424588
0.001030545
0.0010040254
0.0012507403
0.0015357812
0.0018344776
0.0020522007
0.0017312448
0.0014208934
0.0011493395
0.0011879949
0.0013023266
0.0012727936
0.0015743497
0.0019131927
0.0022592985
0.0023967352
0.0020285173
0.001667439
0.0013469193
0.0013787424
0.0014296157
0.0013620695
0.0016792182
0.0020490226
0.0024309264
0.0023184881
0.0019319965
0.0015712374
0.0012902246
0.0014146737
0.0013401435
0.0011922618
0.0014128294
0.0017393639
0.0021006682
0.0022890004
0.0020250029
0.0017853422
0.0015707244
0.0013722028
0.0012536503
0.001573397
0.0019075194
0.0022131851
0.002505407
0.0023719082
0.0020807643
0.001771788
0.0014225262
0.0010725831
0.00089916546
0.0012464669
0.0015805708
0.0018705884
0.0021420403
0.0019316291
0.0016848897
0.0014192855
0.001107691
0.00077018508
0.00070019948
0.0010230121
0.0013140683
0.0015577742
0.0017815973
0.0016766334
0.0014720703
0.0012462013
0.00097235352
0.00066786799
0.00064130339
0.00092235611
0.001181313
0.0013935706
0.0015838708
0.0014856698
0.0013047619
0.0011031883
0.00085875267
0.00060193669
0.0005364518
0.00078114081
0.0010141655
0.0012098242
0.0013883628
0.0013579381
0.001187276
0.00099898327
0.00077527608
0.00055309558
0.00057341463
0.00074355306
0.00094639532
0.0011202567
0.0012779956
0.001191543
0.0010471049
0.00088736926
0.00070463782
0.00059146714
0.00059863677
0.00066431533
0.00082697701
0.00097412505
0.0011084935
0.0010259473
0.00089948457
0.0007635432
0.00061978819
0.00059944621
0.00059551087
0.00056988626
0.00069464898
0.0008199335
0.00093972209
0.00085868758
0.00074428937
0.00062860934
0.00052141288
0.00059135261
0.00060068324
0.00046638646
0.00055458876
0.00066483193
0.00077931745
0.00076245673
0.00064736942
0.00053977264
0.0004611854
0.0006329476
0.00075448138
0.00060652465
0.00071557881
0.00082379998
0.00091913902
0.0010951343
0.0010101763
0.00089370077
0.00074345828
0.00076067496
0.00079035999
0.00079832382
0.00097569324
0.0011145842
0.0012130005
0.0012604789
0.0011529375
0.0010028332
0.00081317885
0.00080303119
0.00079104736
0.0007937261
0.00098669805
0.0011420799
0.0012551513
0.0012140171
0.0010976508
0.00094072877
0.00075022586
0.00076043065
0.00071480746
0.00069143742
0.00087307612
0.0010287155
0.0011473464
0.0010658754
0.00094543382
0.0007933393
0.00062404592
0.00065713205
0.00058942491
0.00055124566
0.00070566346
0.00085171734
0.00097196821
0.00086482027
0.00074805007
0.00061142265
0.00047427077
0.00051182398
0.00054875024
0.0005183339
0.00066936542
0.00081351353
0.00093253807
0.00099434953
0.00087488397
0.00072482792
0.0005608641
0.00058286805
0.00061302478
0.00060026462
0.00077554819
0.00092941148
0.001046984
0.0010859566
0.00097315431
0.00081807792
0.00063401186
0.00063844039
0.00065720252
0.00065866096
0.00084746969
0.00099983652
0.0011042127
0.0010934757
0.001001606
0.00085620367
0.00066826348
0.00066619978
0.00065925105
0.00065429226
0.00083382472
0.00096628613
0.0010400528
0.00092539703
0.00087288738
0.00076678427
0.00061322009
0.00063776971
0.00061765504
0.00047781815
0.00060014216
0.00070533779
0.00076680848
0.00054928844
0.00043910256
0.00033088835
0.00027873729
0.00051241156
0.0003377493
0.00019646528
0.00025470968
0.00034771517
0.00044253004
0.00041022699
0.0003382998
0.00026426736
0.00018856186
0.00016703698
0.00010615667
0.00019821223
0.00027261235
0.00033908978
0.00040677262
0.00055549504
0.00046350402
0.000376276
0.00027854198
0.00013735959
0.00020757052
0.00040501444
0.00054765426
0.00067755617
0.00081638122
0.0011196225
0.00092704383
0.00074223725
0.00054269702
0.00027284433
0.00031769776
0.00067628669
0.00093779059
0.0011746772
0.0014064321
0.0015898323
0.0013327025
0.0010609607
0.00076046746
0.0003570776
0.00045164727
0.00079971956
0.0011100245
0.0013983367
0.0016726073
0.0017202516
0.0014307286
0.0011346173
0.00083096889
0.00057208388
0.00077264734
0.00087060908
0.0011390508
0.0014271935
0.0017222488
0.0018495285
0.0015415202
0.0012460001
0.00098654867
0.00099125498
0.0011868056
0.0011513477
0.0014327076
0.0017521655
0.00208109
0.0023417143
0.0019863432
0.0016343236
0.0013157343
0.0013391204
0.0014487616
0.0014431936
0.0017968511
0.0021807454
0.0025638386
0.0026970692
0.0022910333
0.001884297
0.0015114877
0.0015216931
0.0015670667
0.0015123582
0.0018783467
0.0022920822
0.0027107566
0.002564602
0.0021442644
0.0017434206
0.0014195635
0.00154211
0.0014584252
0.001279988
0.001534957
0.0019009613
0.0022954863
0.0024640696
0.0021693806
0.0019019394
0.0016669606
0.0014645186
0.001320825
0.0016554135
0.0020146052
0.0023463318
0.0026653351
0.0024616705
0.0021524681
0.0018262651
0.0014609241
0.0011050236
0.00089238458
0.0012342558
0.0015740787
0.001872841
0.0021548039
0.0018958224
0.0016430163
0.0013738303
0.0010624647
0.00073251868
0.00065270534
0.00097032092
0.0012589949
0.0015038823
0.0017316727
0.0016286004
0.0014206105
0.001194012
0.00092263636
0.00062379907
0.00061233999
0.00088637419
0.0011422868
0.0013539957
0.0015459775
0.0014610144
0.0012788128
0.0010776517
0.0008357227
0.00058956761
0.00054166912
0.00076971253
0.0010013184
0.0011979155
0.0013790655
0.0013659262
0.0011698578
0.00096286897
0.00072822513
0.00050821906
0.00046736583
0.00072216448
0.0009563875
0.0011595721
0.0013515471
0.0012842537
0.00110653
0.00091665659
0.00069652259
0.00045939763
0.00048361987
0.00065546546
0.0008484029
0.0010180005
0.0011763959
0.0010635573
0.0009252647
0.00077626278
0.0006106353
0.00050955966
0.0005186183
0.00057562505
0.00072120663
0.00085638627
0.00098273681
0.00091184632
0.00079354476
0.00066917376
0.00054080014
0.00052291076
0.00052248957
0.00050234133
0.00061384639
0.00072825939
0.00084009063
0.00077319312
0.00066669579
0.00056146324
0.00046588209
0.00052359418
0.00053689504
0.00042364292
0.00050084155
0.00059999513
0.00070590942
0.00069562273
0.00059100907
0.00049673873
0.00042999121
0.00057018709
0.00070555316
0.00055200394
0.00064308609
0.00074353114
0.00083503633
0.0009993038
0.00091633454
0.00080654148
0.00067277676
0.00071821995
0.00074462826
0.0007222119
0.00088140361
0.0010123209
0.001108361
0.0011516666
0.0010465614
0.0009050467
0.00073442675
0.00075347774
0.00073902309
0.00071534505
0.00088936354
0.0010360344
0.0011467599
0.0011087514
0.00099436332
0.00084607124
0.00067542019
0.00070776688
0.00066359638
0.00062333364
0.00078610583
0.00093316243
0.0010501548
0.00097710732
0.00085889333
0.00071536949
0.00056354453
0.00060890731
0.00054521357
0.00049871302
0.00063721291
0.00077459245
0.00089179649
0.00079362463
0.00068062211
0.00055272249
0.00042978262
0.00047264773
0.00039258112
0.00035657295
0.00046166778
0.00057614721
0.00068089493
0.00074194394
0.00063310211
0.0005101933
0.00039283355
0.00042429622
0.00045607657
0.00042899694
0.00055843213
0.00068896793
0.00080093235
0.00085452281
0.00074092423
0.00060422163
0.00046366816
0.00048691984
0.0005142877
0.00049508218
0.00064513303
0.0007859035
0.00089892013
0.00092944358
0.00081997382
0.00067795478
0.00052102792
0.00053748502
0.00055479651
0.00053857928
0.00069853973
0.00083807278
0.00094031124
0.00092546332
0.00083451697
0.00070165471
0.00054356298
0.00056352521
0.00055808105
0.00052986656
0.00067952998
0.00080040546
0.00087544902
0.00077916692
0.00072220129
0.00062288844
0.00049379924
0.00053841445
0.00050099313
0.00037769187
0.00047052788
0.00056595088
0.00063225619
0.00044826271
0.00035401216
0.00026850145
0.00023107978
0.00039454036
0.00025452972
0.00015536309
0.00019582532
0.00026906995
0.0003483216
0.00028629089
0.00022968538
0.00017372823
0.00012317617
0.0001232128
6.3183915e-05
0.00011004393
0.00015645163
0.00020019608
0.00024505004
0.00032483681
0.00027150241
0.00021951074
0.00016091219
8.2448175e-05
0.00014543962
0.00026570001
0.00035558459
0.00043515201
0.00051799319
0.00077840294
0.00064673773
0.00052400473
0.00038959204
0.00021689452
0.000276203
0.00051107907
0.00069815782
0.00087313866
0.0010615968
0.0013645462
0.0011251095
0.00089035511
0.0006412521
0.0003238316
0.00035085874
0.00075778793
0.0010612207
0.0013360586
0.0016006562
0.0017325545
0.0014469611
0.0011468507
0.00082016468
0.00042379173
0.00053904339
0.00086594165
0.0011960712
0.0015086419
0.0018103028
0.0017889436
0.0014822018
0.0011769888
0.00088018364
0.00071242709
0.00092917148
0.00096311707
0.0012390681
0.0015460615
0.0018638353
0.0020772363
0.0017409572
0.0014144889
0.001126106
0.0011530155
0.001345399
0.0013223428
0.0016491887
0.0020084516
0.0023700363
0.0026613298
0.0022698367
0.0018729072
0.0015000693
0.0014923748
0.0015980391
0.0016284228
0.0020395244
0.0024707284
0.0028922023
0.0030191224
0.0025741026
0.0021197862
0.0016898853
0.0016680849
0.0017074099
0.0016751048
0.0020944159
0.00255378
0.0030101801
0.0028263472
0.0023715249
0.0019293977
0.0015589144
0.001671584
0.0015798603
0.0013736075
0.0016666276
0.0020731493
0.0025010777
0.0026435153
0.0023156243
0.002018014
0.0017605512
0.0015586707
0.001389927
0.0017383624
0.0021240178
0.002482589
0.002828826
0.0025399947
0.0022152783
0.0018741084
0.0014948659
0.0011385116
0.0008836776
0.0012081956
0.0015483232
0.0018513485
0.0021392096
0.0018243464
0.0015704885
0.0013025593
0.00099719931
0.00068895564
0.0005957161
0.00089610346
0.0011755752
0.0014165578
0.0016436327
0.0015390509
0.0013336611
0.0011130827
0.00085319428
0.0005788442
0.00058883534
0.00083243117
0.0010769621
0.0012823583
0.0014708189
0.0014022312
0.0012237224
0.0010284372
0.00079712907
0.00058583583
0.00056011887
0.00074465131
0.00096642951
0.0011584563
0.0013370986
0.0013187254
0.0011306591
0.00093171517
0.00071088578
0.0005564793
0.00060956478
0.00061167483
0.0007758555
0.00094109596
0.0011035416
0.0012196826
0.001037494
0.00084835051
0.00064645904
0.00053084955
0.00044887824
0.00067080067
0.00090309134
0.0011117094
0.0013104481
0.0013099751
0.0011122037
0.0009041746
0.00066820797
0.00039309438
0.00038902936
0.00059270559
0.00079010077
0.00096728539
0.0011381673
0.00095857912
0.00082031789
0.00067704
0.00052303376
0.00042189846
0.00043087056
0.00048917695
0.00062032591
0.00074472887
0.00086420117
0.00080269103
0.00069229085
0.00057894512
0.00046358123
0.00043804449
0.00044038053
0.0004363795
0.00053715243
0.00064106927
0.00074495004
0.0006924202
0.00059392845
0.0004987613
0.0004119418
0.00044594271
0.00046257218
0.00038240468
0.00045195083
0.00054041356
0.00063751715
0.00063519241
0.00054170887
0.00046023742
0.00040068482
0.00049631258
0.00064343511
0.00050194487
0.00057607635
0.0006683612
0.00075591486
0.00090812771
0.00082713706
0.00072386894
0.00060566001
0.00066703453
0.00069051352
0.00064941338
0.0007913088
0.00091448557
0.0010081566
0.0010466493
0.00094420357
0.0008111736
0.00065875921
0.00069592369
0.0006798217
0.00063953276
0.00079440343
0.00093240263
0.0010406548
0.0010066439
0.00089464083
0.00075536284
0.00060364339
0.00064914665
0.00060734434
0.00055710918
0.00070172671
0.00083962875
0.00095385676
0.00088719024
0.00077264893
0.00063858876
0.00050385647
0.00055619364
0.00049696924
0.00044616795
0.00056889109
0.00069652378
0.00080916308
0.00071993855
0.0006120391
0.00049384133
0.0003849671
0.00043002475
0.00035772658
0.00032037171
0.00041358793
0.00051903377
0.00061869543
0.00050137834
0.00041455952
0.00032600999
0.00025051743
0.00027744012
0.00029950413
0.00027581204
0.00036040549
0.00045618708
0.00054705122
0.0005958635
0.00050120482
0.00039791739
0.00030316771
0.00031968928
0.00034609982
0.00033332634
0.00043845956
0.00054926343
0.00064765671
0.00069424469
0.00059309394
0.0004760146
0.00036188785
0.0003755757
0.00040029895
0.00038630209
0.00050783229
0.00062913704
0.00073094505
0.00075407495
0.00065456761
0.00053191722
0.00040556156
0.00042085492
0.00043566791
0.00041720465
0.00054465532
0.00066483727
0.00075819033
0.00073948928
0.00065616084
0.00054248563
0.00041834464
0.00044198178
0.00043415417
0.00040513895
0.0005207375
0.0006234011
0.00069301355
0.00061562361
0.00056023842
0.0004745507
0.0003749054
0.00041072333
0.00035352343
0.00027952372
0.00034412767
0.00042094608
0.00048299882
0.00034915501
0.00027604058
0.00021246725
0.00018152616
0.00026247568
0.00017578281
0.00011982032
0.00014712932
0.00019966671
0.0002613047
0.00019255539
0.00014727302
0.00010782064
8.0874743e-05
9.9470051e-05
4.6092156e-05
5.1895988e-05
7.6949997e-05
0.00010746769
0.00014236762
0.00016226071
0.00012642687
9.3831169e-05
6.1744976e-05
3.5575014e-05
7.2238783e-05
0.00013713321
0.00019104286
0.00023950699
0.00028988688
0.00047905954
0.00039922883
0.00032320921
0.0002386253
0.00013407397
0.00019655245
0.00034307445
0.00046592039
0.00057925572
0.00070186929
0.00097656211
0.00079421841
0.00062841561
0.00045536124
0.00025434527
0.00030669084
0.00058443114
0.00081679421
0.0010408168
0.0012800299
0.0015707662
0.0012993582
0.0010242646
0.00072820277
0.00035301737
0.0004200601
0.00083828683
0.0011734145
0.0014806294
0.0017761584
0.0019110723
0.0015973772
0.0012701465