/*--------------------------------*- C++ -*----------------------------------*\
| =========                 |                                                 |
| \\      /  F ield         | OpenFOAM: The Open Source CFD Toolbox           |
|  \\    /   O peration     | Version:  2306                                  |
|   \\  /    A nd           | Website:  www.openfoam.com                      |
|    \\/     M anipulation  |                                                 |
\*---------------------------------------------------------------------------*/
FoamFile
{
    version     2.0;
    format      ascii;
    arch        "LSB;label=32;scalar=64";
    class       volScalarField;
    location    "1600";
    object      nut;
}
// * * * * * * * * * * * * * * * * * * * * * * * * * * * * * * * * * * * * * //

dimensions      [0 2 -1 0 0 0 0];

internalField   nonuniform List<scalar> 
225451
(
0.00050598
0.00032198002
0.00023394694
0.00015375364
8.0833641e-05
1.1637687e-05
1.8634919e-05
0.00013974416
0.00024723507
0.00033484076
0.00042255331
0.0002997738
0.00021635338
0.00014621359
7.9722379e-05
1.4947124e-05
1.6832651e-05
6.579357e-05
0.00012543196
0.00019929042
0.00029136481
0.00032816616
0.00023299254
0.0001451492
7.0965191e-05
1.5522141e-05
1.6325521e-05
7.8738808e-05
0.0001733197
0.00028424473
0.0004012919
0.00038401587
0.00027584449
0.0001749414
8.2812249e-05
1.3607998e-05
2.1273485e-05
0.00015076162
0.00029808431
0.00041947172
0.00052990257
0.00063271993
0.00053550554
0.00040124025
0.00020958034
2.8639712e-05
2.331469e-05
0.00015829832
0.00029050076
0.00038984102
0.00048046744
0.00030436665
0.00021582062
0.00014507008
7.6479278e-05
1.6726315e-05
1.7361897e-05
6.1052344e-05
0.00011761213
0.00019135829
0.00029041657
0.00031985131
0.00020519962
0.00011933082
5.9316869e-05
1.9890123e-05
1.9499784e-05
6.4895732e-05
0.00012831864
0.00021325735
0.00031883965
0.00036583229
0.00025731595
0.00015602753
7.3580602e-05
1.7957532e-05
1.8474384e-05
8.4197314e-05
0.00019143324
0.00032027234
0.00045420806
0.00049354581
0.00034409581
0.00020153812
8.464607e-05
1.8528021e-05
1.693334e-05
7.5998489e-05
0.00017786652
0.00030091482
0.00043292084
0.00041255615
0.00028806438
0.00017350255
7.3904233e-05
1.5291584e-05
2.2836399e-05
0.00014334731
0.00030589966
0.00045059855
0.00058329115
0.00073164442
0.00060551016
0.00043556864
0.00021248046
3.0320483e-05
3.1415649e-05
0.00021959733
0.0004705107
0.00067048484
0.0008146057
0.00069404423
0.0005867138
0.00043128956
0.00021586081
3.0384328e-05
2.4872066e-05
0.00015679332
0.00030410655
0.0004178833
0.0005148641
0.00031755663
0.00022101701
0.00014190395
6.6604727e-05
1.8156871e-05
1.7674361e-05
5.6101601e-05
0.00011595546
0.00019443712
0.00029754324
0.0003262877
0.00020988122
0.0001203018
5.6781798e-05
1.9363855e-05
2.1612897e-05
5.7618109e-05
0.00012790859
0.00023041753
0.00036037869
0.00035636352
0.00022620048
0.00012600774
5.9180576e-05
2.2486246e-05
2.1956106e-05
6.4584055e-05
0.00013360916
0.00023036884
0.00034886724
0.00040398705
0.00028174987
0.00016749287
7.6370847e-05
2.0047862e-05
2.0240382e-05
8.8763446e-05
0.00020807042
0.00035296208
0.0005025923
0.00054940873
0.00038257085
0.00022204559
9.0998029e-05
1.9935541e-05
1.978561e-05
8.9322849e-05
0.0002252541
0.00039399485
0.00057079908
0.00050881608
0.00035041774
0.00020058108
8.0578624e-05
1.8751624e-05
1.7687602e-05
6.9472762e-05
0.0001725132
0.00030191914
0.00044294169
0.0004185537
0.0002842005
0.00016266846
6.3609113e-05
1.6658571e-05
2.4028064e-05
0.00013048973
0.00029606829
0.00045242234
0.00059814104
0.00077348975
0.00062645073
0.00043577171
0.00020174327
3.1183006e-05
3.1865499e-05
0.00020914093
0.00047255159
0.00069841958
0.00086961077
0.00090301195
0.00071721036
0.00047580484
0.00020388853
3.2107571e-05
3.1974576e-05
0.00021286972
0.00047221545
0.00068670337
0.00084302096
0.00071462018
0.00059974911
0.00043283536
0.00020914464
3.148144e-05
2.6152689e-05
0.00014832985
0.00030152094
0.00042303936
0.00052284347
0.00032011891
0.00021943759
0.00013553343
5.7908272e-05
1.9397892e-05
1.8125749e-05
5.0957768e-05
0.00011161165
0.00019169344
0.00029565624
0.00032136494
0.00020663796
0.00011775028
5.4178394e-05
1.884193e-05
2.0712527e-05
5.5647635e-05
0.00012492737
0.00022494097
0.00035170092
0.00038722004
0.00024799383
0.00013574867
5.8717816e-05
2.2459063e-05
2.3464197e-05
6.0499635e-05
0.00013935566
0.00025539924
0.00039906265
0.00039646809
0.00025185504
0.00013685496
6.1283547e-05
2.4497769e-05
2.3758821e-05
6.5737478e-05
0.00014130218
0.00024982605
0.0003805174
0.00043974158
0.00030525461
0.0001794913
8.0326341e-05
2.1478847e-05
2.1428278e-05
9.4315944e-05
0.0002247077
0.00038323728
0.00054620612
0.00059876739
0.00041762882
0.00024209555
9.804495e-05
2.085441e-05
2.0444308e-05
9.7907335e-05
0.00024852732
0.00043341417
0.00062533676
0.00063018856
0.00043340095
0.00024541197
9.4383901e-05
2.0079454e-05
1.9628397e-05
8.4627104e-05
0.00021954086
0.0003902822
0.00057097542
0.000503762
0.00034217969
0.00019152061
7.4220028e-05
1.8902218e-05
1.8230966e-05
6.1941484e-05
0.00016117163
0.00029158408
0.00043646253
0.00040901378
0.0002704464
0.00014794052
5.4647227e-05
1.7550394e-05
2.4734415e-05
0.00011637376
0.00027714167
0.00043727429
0.00059022154
0.00077907402
0.00061887084
0.00041874965
0.00018614355
3.1516615e-05
3.2073471e-05
0.00019445121
0.00045689661
0.00069471169
0.00088251462
0.00091898165
0.00071489523
0.00046121226
0.00019067501
3.2214889e-05
3.2287564e-05
0.00018095949
0.00044658399
0.00070286422
0.00091404419
0.00089795889
0.00070473225
0.00045977457
0.00019235558
3.2289823e-05
3.2278348e-05
0.00019940701
0.00045537606
0.00067448423
0.00083812755
0.00071072246
0.0005889184
0.0004166228
0.00019460354
3.1967965e-05
2.6950667e-05
0.00013491065
0.00028768136
0.00041388063
0.00051798883
0.00031928906
0.00021444596
0.00012614149
4.8852007e-05
2.0417793e-05
1.8504976e-05
4.507426e-05
0.00010671506
0.00019033376
0.00029715539
0.00032502593
0.00020895593
0.00011711977
5.1331575e-05
1.8171223e-05
1.9554649e-05
5.3913349e-05
0.00012490897
0.00022617793
0.00035219804
0.00038150509
0.00024551668
0.00013448893
5.7079272e-05
2.1190339e-05
2.2872537e-05
6.0656791e-05
0.00014457823
0.00026518288
0.00041154521
0.00042571993
0.00027360981
0.00014864029
6.2714153e-05
2.4119788e-05
2.5131403e-05
6.4372654e-05
0.00015291841
0.00028301192
0.00044042429
0.000437641
0.00027947959
0.00014990964
6.4479169e-05
2.6245562e-05
2.5298697e-05
6.7315941e-05
0.00014985535
0.00026995595
0.00041190457
0.0004715835
0.00032627575
0.00019047378
8.4254274e-05
2.2613025e-05
2.2336948e-05
9.9410598e-05
0.00023910701
0.00040879789
0.00058290664
0.00063809553
0.00044581677
0.0002587095
0.00010415717
2.1506604e-05
2.085387e-05
0.00010519168
0.00026749147
0.00046441011
0.00066754464
0.00067642629
0.00046782668
0.00026690318
0.00010282211
2.030645e-05
1.9848506e-05
9.8069698e-05
0.00025956951
0.0004603233
0.00067061642
0.00061970127
0.00042233665
0.00023579957
8.8755069e-05
1.9731098e-05
1.9424452e-05
7.7900916e-05
0.0002079447
0.00037632659
0.00055659073
0.00048801644
0.00032640595
0.00017843449
6.7110124e-05
1.8927068e-05
1.8528679e-05
5.4769063e-05
0.00014738264
0.00027510173
0.00042010232
0.00039061148
0.00025190195
0.00013246468
4.7329382e-05
1.8048856e-05
2.5118314e-05
0.00010289969
0.00025500492
0.00041408538
0.00056991147
0.00076384667
0.00059658316
0.00039420315
0.0001695449
3.1596963e-05
3.2088385e-05
0.00017849741
0.00043260671
0.00067355935
0.00087033614
0.00090802962
0.00069422986
0.00043766473
0.00017590412
3.2139548e-05
3.2119143e-05
0.00016774368
0.00042456635
0.00068291561
0.000903203
0.00086969148
0.00065076878
0.00039954076
0.00015552752
3.1775868e-05
3.2021451e-05
0.00016679965
0.00041910058
0.00066913593
0.00088029865
0.00086531083
0.00067043404
0.00043021774
0.0001760558
3.2114573e-05
3.2201809e-05
0.00018098561
0.00042495083
0.00064166534
0.00080881032
0.00068844526
0.00056100719
0.00038808281
0.00017515977
3.1971795e-05
2.7266782e-05
0.0001180534
0.00026567333
0.00039388905
0.00050249868
0.00031527256
0.00020653764
0.00011434086
4.0629146e-05
2.1031226e-05
1.8602344e-05
3.9204431e-05
0.00010256397
0.00019220587
0.00030353454
0.00034398069
0.00022390463
0.00012362358
5.0120638e-05
1.7104503e-05
1.7777331e-05
5.5939932e-05
0.00013642755
0.00024519572
0.00037278466
0.00039511346
0.00025995386
0.00014463232
5.95405e-05
1.92425e-05
2.0976026e-05
6.1642461e-05
0.00014920086
0.0002696928
0.00041213961
0.0004314499
0.0002804087
0.00015377725
6.3502596e-05
2.2771858e-05
2.4530077e-05
6.4839098e-05
0.00015658104
0.00028851368
0.00044700928
0.00046940965
0.00030321045
0.00016398468
6.7704967e-05
2.5679082e-05
2.6663107e-05
6.9207239e-05
0.00016869686
0.00031373527
0.00048531394
0.00048035498
0.00030904477
0.00016480337
6.8615729e-05
2.7815585e-05
2.6676904e-05
6.9323123e-05
0.00015929794
0.00029089082
0.0004434482
0.00050093811
0.00034564498
0.00020068671
8.8105362e-05
2.3558442e-05
2.3066247e-05
0.00010410222
0.00025164165
0.00043071331
0.00061444879
0.0006688579
0.00046790792
0.00027206051
0.00010934788
2.1968122e-05
2.1053111e-05
0.00011108494
0.00028194019
0.00048710663
0.00069808818
0.00070971963
0.00049318578
0.00028353939
0.00010977949
2.0313457e-05
1.9757343e-05
0.00010614573
0.00027900335
0.00048991694
0.00070925645
0.00069595629
0.00047702579
0.00026860186
0.00010053172
1.9268443e-05
1.9385833e-05
9.1674489e-05
0.00024679598
0.00044332178
0.00065157921
0.00059681151
0.00040272589
0.00022162163
8.1976227e-05
1.9322028e-05
1.9111229e-05
7.056443e-05
0.00019185462
0.00035432343
0.00053092838
0.00046444544
0.00030565275
0.00016335087
6.0193961e-05
1.8776259e-05
1.8562001e-05
4.8556403e-05
0.00013317996
0.00025550016
0.00039776863
0.0003674582
0.00023158773
0.00011791944
4.1656182e-05
1.8199184e-05
2.5238993e-05
9.0802305e-05
0.00023232621
0.00038718783
0.00054256477
0.00073627203
0.00056642627
0.00036650244
0.0001533244
3.1462915e-05
3.1896083e-05
0.00016247986
0.00040410383
0.00064239573
0.00084261353
0.00088008937
0.00066276294
0.00040948518
0.00016072118
3.1863368e-05
3.1761218e-05
0.00015383147
0.00039780092
0.00065218627
0.00087527213
0.00084273095
0.00062206098
0.00037523961
0.00014331492
3.1351776e-05
3.0584624e-05
0.00013047555
0.00034553905
0.00057883818
0.00079085952
0.00081548945
0.0006043013
0.0003665902
0.00014072945
3.1056047e-05
3.1357879e-05
0.00014984697
0.00038296972
0.00062004967
0.00082492367
0.00081098745
0.00062023835
0.00039148807
0.00015685807
3.1517768e-05
3.1677779e-05
0.0001597868
0.00038536039
0.00059348033
0.00075942841
0.00065010282
0.00052014348
0.00035146785
0.00015339716
3.1494795e-05
2.7097398e-05
0.00010022919
0.00023840589
0.00036496918
0.00047563701
0.00030462132
0.00019436198
0.00010080802
3.3925524e-05
2.1062486e-05
1.8388445e-05
3.3809784e-05
9.760576e-05
0.00019266743
0.00030738177
0.00037326579
0.00024936563
0.00013806413
5.1992229e-05
1.5748127e-05
1.5469594e-05
6.79246e-05
0.00016906365
0.00029029894
0.00042006688
0.0004418681
0.0003059894
0.00018017365
7.4531518e-05
1.6567942e-05
1.8350947e-05
7.3091762e-05
0.00017703929
0.00030546501
0.00044762097
0.00044674594
0.00029908161
0.00016973028
6.9908621e-05
2.0290937e-05
2.2288308e-05
6.7824159e-05
0.00016497104
0.00029666991
0.00045105186
0.00046028978
0.00029807886
0.00016217483
6.6523247e-05
2.4584238e-05
2.6182778e-05
7.0176339e-05
0.00017230593
0.00031844523
0.00049130449
0.00051939723
0.00033785653
0.0001824247
7.3702001e-05
2.7234173e-05
2.8148808e-05
7.4906137e-05
0.00018678598
0.00034780758
0.00053392985
0.00052497988
0.00034079733
0.00018152929
7.3569745e-05
2.931215e-05
2.8007444e-05
7.1686497e-05
0.00016976492
0.00031298132
0.00047567926
0.00052877516
0.00036397828
0.00021027914
9.1751278e-05
2.4433309e-05
2.3724897e-05
0.00010820365
0.00026246033
0.00044970124
0.00064195418
0.00069168094
0.00048415055
0.00028192302
0.0001132583
2.233863e-05
2.112165e-05
0.00011498479
0.0002910241
0.00050083181
0.00071650745
0.00072851896
0.00050791354
0.0002939134
0.00011445432
2.0154314e-05
1.9492598e-05
0.00011211719
0.00029245788
0.00050913968
0.00073354721
0.00072796642
0.00050193394
0.00028546036
0.00010773884
1.8995042e-05
1.8486739e-05
0.00010147728
0.00027257112
0.00048456107
0.00070847175
0.00066928311
0.00045473809
0.00025303499
9.3425941e-05
1.8722669e-05
1.8830496e-05
8.4291747e-05
0.00022989651
0.0004182571
0.00062056967
0.00056377753
0.00037652367
0.00020419775
7.4271406e-05
1.8790039e-05
1.8645451e-05
6.3453217e-05
0.00017444904
0.00032751162
0.00049720217
0.00043574036
0.00028222481
0.00014790647
5.3955562e-05
1.8428495e-05
1.8341088e-05
4.34225e-05
0.00011969803
0.00023478785
0.00037215704
0.00034216783
0.00021126967
0.00010502609
3.7384363e-05
1.8053145e-05
2.5126665e-05
8.0273083e-05
0.00021039769
0.00035897225
0.00051139176
0.00070142386
0.00053229841
0.00033794044
0.00013808103
3.1144518e-05
3.1520082e-05
0.00014706374
0.0003739615
0.00060576062
0.00080538131
0.00084164608
0.00062526822
0.00037932024
0.00014585676
3.1410109e-05
3.1235115e-05
0.00013999272
0.00036886443
0.00061536387
0.0008367605
0.00080556778
0.0005873814
0.00034860119
0.00013092981
3.0767396e-05
2.9959451e-05
0.00011980683
0.00032192331
0.00054746857
0.0007564542
0.00069476287
0.00049861285
0.00028916546
0.00010620549
2.8817041e-05
2.9462505e-05
0.00011600201
0.0003115338
0.00052749029
0.00072623543
0.00074788301
0.00054938855
0.00032948211
0.00012488514
2.9965711e-05
3.0307645e-05
0.00013194366
0.00034257144
0.00056206896
0.00075540105
0.00074209398
0.00056085553
0.00034849445
0.00013692798
3.0515568e-05
3.0728128e-05
0.00013825225
0.00034177388
0.00053636026
0.00069590816
0.00059934278
0.00047148586
0.00031155445
0.00013186546
3.0576748e-05
2.6436674e-05
8.3567049e-05
0.00020915889
0.0003301852
0.00043863149
0.00028404247
0.0001765666
8.6231714e-05
2.8822508e-05
2.0477322e-05
1.7721528e-05
2.862338e-05
8.8027944e-05
0.00018187654
0.00029398102
0.00037782115
0.00025646682
0.00014291247
5.205747e-05
1.4178724e-05
1.3131005e-05
8.2144298e-05
0.00019931583
0.00032661895
0.00045407924
0.00050035111
0.00036723543
0.00023295115
0.00010262196
1.3689399e-05
1.5336808e-05
0.00010208694
0.00023317916
0.00037251562
0.00051416014
0.00050417939
0.00035670093
0.00021691466
9.2794945e-05
1.7279121e-05
1.9355019e-05
8.1720356e-05
0.00019522684
0.00033271504
0.00048440122
0.00047224878
0.00031542845
0.0001790013
7.3910372e-05
2.1505453e-05
2.4290993e-05
6.8334457e-05
0.00016715628
0.00030538054
0.0004695813
0.0005024286
0.00032589957
0.00017644523
7.1423742e-05
2.6385969e-05
2.7828325e-05
7.7024777e-05
0.00019266915
0.00035609554
0.00054534863
0.00057546571
0.00037770034
0.00020426868
8.0892288e-05
2.8783632e-05
2.9627083e-05
8.1472527e-05
0.00020727051
0.00038520645
0.00058602077
0.00057169654
0.00037496578
0.00020025315
7.9340166e-05
3.0773889e-05
2.9330963e-05
7.4490555e-05
0.00018150975
0.00033662184
0.00050908219
0.00055606174
0.00038198514
0.00021958827
9.520575e-05
2.5287352e-05
2.4365409e-05
0.00011185547
0.00027221143
0.00046695686
0.00066695753
0.00070821331
0.0004957925
0.00028892851
0.00011601706
2.2675152e-05
2.1111683e-05
0.00011683047
0.00029494978
0.00050624393
0.00072376017
0.0007327791
0.00051184113
0.00029767954
0.00011655408
1.9867235e-05
1.9085534e-05
0.00011553847
0.00029924469
0.00051733293
0.00074289752
0.00074707228
0.00051738462
0.00029663453
0.00011278737
1.8611043e-05
1.8160041e-05
0.00010815709
0.00028814712
0.00050761606
0.0007383289
0.00071472297
0.00048800188
0.00027492569
0.00010245137
1.749897e-05
1.7795629e-05
9.4044273e-05
0.00025501721
0.00045795414
0.00067527602
0.00063008313
0.00042428803
0.00023354891
8.5468479e-05
1.8007434e-05
1.8103209e-05
7.6216692e-05
0.00021000158
0.0003866232
0.00057908973
0.00052181322
0.00034409461
0.00018376746
6.6500197e-05
1.8084407e-05
1.7993216e-05
5.6945852e-05
0.00015698631
0.00029916727
0.00046077914
0.00040442439
0.00025802475
0.00013315838
4.8595305e-05
1.7869543e-05
1.7875551e-05
3.931708e-05
0.00010753592
0.00021428115
0.0003451503
0.00031634062
0.0001919466
9.4046011e-05
3.426989e-05
1.764654e-05
2.4790914e-05
7.1288462e-05
0.00018982027
0.00033074375
0.00047831845
0.00066234925
0.00049641994
0.00030973144
0.00012407277
3.0654709e-05
3.0976328e-05
0.00013261425
0.00034365097
0.00056638107
0.00076239128
0.00079679536
0.00058465088
0.00034873574
0.00013175054
3.0796934e-05
3.055655e-05
0.00012670211
0.00033929408
0.00057528851
0.00079172021
0.00076191568
0.00054931544
0.00032104109
0.00011885082
3.003723e-05
2.9194731e-05
0.00010812753
0.00029620668
0.00051209857
0.00071529353
0.00065710213
0.00046574571
0.00026574999
9.6579774e-05
2.8045018e-05
2.6602406e-05
8.5148495e-05
0.00023432233
0.00041615347
0.00059446802
0.00062594251
0.00044417745
0.00025413183
9.2905655e-05
2.7361773e-05
2.8004567e-05
0.00010051963
0.00027254985
0.00046871126
0.00065174836
0.00067109569
0.00048858618
0.00028835719
0.0001075266
2.8516913e-05
2.8882746e-05
0.00011366375
0.00030042979
0.00049952574
0.00067729779
0.00066482594
0.00049735611
0.0003045244
0.00011759406
2.912665e-05
2.9378327e-05
0.00011781373
0.00029771693
0.00047547771
0.00062429248
0.00054087283
0.00041933266
0.00027144149
0.00011184074
2.9251613e-05
2.5277508e-05
6.8224229e-05
0.00017939906
0.00029228016
0.00039510843
0.00025624694
0.00015518241
7.2312963e-05
2.4989436e-05
1.9324425e-05
1.6587424e-05
2.3812491e-05
7.4431537e-05
0.00016013935
0.00026365757
0.00034372068
0.00023342757
0.00013005064
4.7169658e-05
1.2356486e-05
1.083664e-05
8.0611776e-05
0.00019364768
0.00031362777
0.00043127023
0.00051297127
0.00038800739
0.00025388476
0.00011445481
1.1186371e-05
1.2802863e-05
0.00012825654
0.00028089063
0.00042749297
0.00056566756
0.00057977348
0.00043308764
0.00028229582
0.00012937398
1.4460808e-05
1.6304466e-05
0.00011523594
0.00025819616
0.00040758967
0.00055918071
0.00052586863
0.00037069095
0.00022525117
9.6848524e-05
1.8347567e-05
2.0551747e-05
8.2610644e-05
0.00019792356
0.00034013054
0.00049965412
0.00047790814
0.00031285163
0.00017302771
7.0753026e-05
2.3667913e-05
2.6259984e-05
7.1843718e-05
0.00017784135
0.00032802403
0.00050590135
0.00055808832
0.00036447485
0.00019722805
7.847856e-05
2.8159915e-05
2.9461751e-05
8.5490143e-05
0.00021772272
0.00040098509
0.00060792943
0.00063643556
0.00042211397
0.00022936721
8.928177e-05
3.0329519e-05
3.1101255e-05
8.8965353e-05
0.00023016236
0.00042568332
0.00064103898
0.00062042975
0.00041158765
0.00022107653
8.5960456e-05
3.2215924e-05
3.0658943e-05
7.7810902e-05
0.00019472064
0.0003620056
0.00054384011
0.00058333977
0.00040010004
0.00022884815
9.8451322e-05
2.6145951e-05
2.5015964e-05
0.00011522159
0.00028150356
0.00048347367
0.00069064438
0.00071999441
0.00050407029
0.00029378545
0.0001178133
2.3013923e-05
2.106303e-05
0.00011666746
0.00029413824
0.00050423474
0.00072099221
0.00072272419
0.00050508455
0.00029472925
0.000115896
1.9480995e-05
1.8556944e-05
0.00011596716
0.00029869457
0.00051378054
0.00073653893
0.00075170802
0.00052206767
0.00030117574
0.00011522507
1.8111939e-05
1.7743581e-05
0.00011211424
0.00029723917
0.00052018842
0.0007538737
0.00073440379
0.00050316285
0.00028515659
0.00010663191
1.7190429e-05
1.6233128e-05
0.00010113996
0.00026953207
0.00047570518
0.00069598391
0.00067651373
0.00046036538
0.00025901211
9.6691963e-05
1.6479471e-05
1.6782531e-05
8.6988656e-05
0.00023596117
0.00042602909
0.00063228418
0.00058040872
0.00038747722
0.0002110897
7.6692472e-05
1.7049794e-05
1.715432e-05
6.7809557e-05
0.00018699321
0.00034835137
0.00052737908
0.00047610358
0.00031015957
0.00016379738
5.943249e-05
1.717289e-05
1.7132689e-05
5.1281445e-05
0.00014047861
0.00027060683
0.00042248284
0.00037202274
0.00023422008
0.00011971793
4.4158515e-05
1.7089781e-05
1.7173043e-05
3.6137245e-05
9.6980795e-05
0.00019480825
0.00031800322
0.00029097596
0.00017419424
8.503592e-05
3.2117252e-05
1.7003889e-05
2.423045e-05
6.3740879e-05
0.00017083623
0.00030320514
0.00044452181
0.00062090318
0.00046005926
0.00028249301
0.00011138206
2.999365e-05
3.026842e-05
0.00011930778
0.00031399204
0.00052587122
0.0007159639
0.00074802261
0.00054263201
0.00031861524
0.00011863562
3.0028189e-05
2.9729596e-05
0.00011421292
0.00030993234
0.00053357587
0.00074250768
0.00071364832
0.00050904628
0.00029293843
0.00010668971
2.9164204e-05
2.8301207e-05
9.7129144e-05
0.00026846902
0.00047249301
0.00066813076
0.00061647939
0.00043079225
0.00024165828
8.7301517e-05
2.7156795e-05
2.5736752e-05
7.7480913e-05
0.0002137477
0.0003857157
0.00055880583
0.00049366123
0.00033668625
0.00018461682
6.7659665e-05
2.399951e-05
2.4839386e-05
7.3879671e-05
0.00020189168
0.00036302149
0.00052515402
0.00055256267
0.00038700052
0.00021836461
8.0050863e-05
2.5583568e-05
2.6213461e-05
8.5913231e-05
0.00023330661
0.00040748036
0.00057431213
0.0005885217
0.00042302963
0.00024576671
9.110713e-05
2.6721288e-05
2.7092464e-05
9.5220454e-05
0.00025448004
0.0004310703
0.00059145319
0.00057950561
0.00042881636
0.00025750253
9.7597243e-05
2.7349707e-05
2.7616688e-05
9.7464166e-05
0.00025238135
0.00041164309
0.00054635037
0.00047618423
0.00036451705
0.00023145003
9.3355234e-05
2.7503155e-05
2.358163e-05
5.4153801e-05
0.00014540201
0.00024780345
0.00034329595
0.00022447345
0.00013267656
6.069589e-05
2.220437e-05
1.7664311e-05
1.4979284e-05
1.9925752e-05
5.9508353e-05
0.00013251106
0.00022393712
0.00028648069
0.00019231127
0.00010556575
3.7649753e-05
1.063318e-05
8.5669117e-06
6.6601349e-05
0.00016097244
0.00026208959
0.00036235775
0.0004568611
0.00034234442
0.00021769238
9.2634381e-05
9.7124042e-06
1.1861241e-05
0.0001098179
0.00025999214
0.00040845494
0.0005431695
0.00060366241
0.00045587473
0.00029359859
0.00012632019
1.3537918e-05
1.4554321e-05
0.00013878559
0.00030836621
0.00047119579
0.00062454023
0.00060676897
0.00045101213
0.00029314593
0.00013466416
1.5525099e-05
1.747368e-05
0.00011326583
0.00025688581
0.00041097228
0.00057064993
0.00053827298
0.00037389478
0.00022322168
9.4420097e-05
1.9648599e-05
2.2794117e-05
7.5072757e-05
0.00018314078
0.00032590767
0.00049227081
0.0005047706
0.00032737678
0.00017816077
7.2002627e-05
2.5772018e-05
2.8160585e-05
7.8313641e-05
0.00019705208
0.00036447743
0.00055943466
0.00062493955
0.00041254517
0.00022417992
8.7686151e-05
2.9883921e-05
3.1065543e-05
9.5503461e-05
0.00024690831
0.00045162246
0.00067666719
0.00070088436
0.00047017717
0.00025736917
9.8837934e-05
3.1857775e-05
3.2558377e-05
9.7422771e-05
0.00025538919
0.00046890594
0.00069842775
0.00067097482
0.00045057983
0.00024405367
9.3477461e-05
3.3633138e-05
3.1980562e-05
8.169534e-05
0.00020946838
0.00038910423
0.00057985629
0.00061078422
0.00041848305
0.00023818966
0.00010149027
2.7010081e-05
2.567877e-05
0.00011851833
0.00029091298
0.00050003153
0.00071387593
0.00072840483
0.00051015982
0.00029728357
0.00011893874
2.3364171e-05
2.0991035e-05
0.00011472019
0.00028928557
0.00049595202
0.00070959305
0.00069931014
0.00048844702
0.00028550247
0.00011258342
1.900343e-05
1.7913454e-05
0.00011335186
0.00029078823
0.00049845857
0.00071428509
0.00073730015
0.00051235701
0.00029631484
0.00011338488
1.7496897e-05
1.7333256e-05
0.0001106945
0.00029441882
0.0005152411
0.00074702589
0.00073140378
0.00050035995
0.00028286538
0.00010506446
1.7012227e-05
1.6317794e-05
9.9018024e-05
0.00026674373
0.00047274096
0.00069252548
0.00063995176
0.00044165047
0.00025258001
9.4950568e-05
1.582023e-05
1.5163593e-05
9.9828907e-05
0.00026042601
0.00045225009
0.0006554751
0.00063773647
0.00043609547
0.00024832576
9.4596413e-05
1.5019695e-05
1.5403533e-05
8.1579325e-05
0.00021912652
0.00039505786
0.00058821411
0.000527657
0.00034856672
0.00018849209
6.8821197e-05
1.5815493e-05
1.5957437e-05
6.0493354e-05
0.00016558028
0.00031091421
0.00047655512
0.00043059226
0.00027711427
0.00014536094
5.3320389e-05
1.6031237e-05
1.6041117e-05
4.6522807e-05
0.00012548131
0.00024283379
0.0003835107
0.00033954503
0.00021156017
0.00010791368
4.06155e-05
1.6075325e-05
1.6231912e-05
3.3783958e-05
8.814903e-05
0.00017686764
0.00029149796
0.00026665869
0.00015834156
7.7972581e-05
3.0791861e-05
1.6137222e-05
2.3432548e-05
5.749805e-05
0.00015348106
0.00027667085
0.00041065299
0.00057813163
0.00042386385
0.00025648505
9.9992412e-05
2.9149874e-05
2.9386702e-05
0.00010718891
0.00028535857
0.00048506228
0.00066737818
0.00069660353
0.00050003497
0.00028933917
0.00010658536
2.9094246e-05
2.874314e-05
0.00010229383
0.00028091142
0.00049079066
0.00069008095
0.00066059744
0.00046550072
0.00026303072
9.4956386e-05
2.8144134e-05
2.7276603e-05
8.6821432e-05
0.0002411038
0.00043201687
0.00062004231
0.00057276597
0.00039422972
0.00021739786
7.8426004e-05
2.6149517e-05
2.4761237e-05
6.9998049e-05
0.00019271655
0.00035325099
0.00051934176
0.00045893381
0.00030867412
0.0001669868
6.1534588e-05
2.3070706e-05
2.1043777e-05
5.2712858e-05
0.00013928856
0.00025861272
0.0003887544
0.00041740011
0.00028126696
0.00015313206
5.7519963e-05
2.1870722e-05
2.2665745e-05
6.2442905e-05
0.00016724324
0.00030370309
0.00044499298
0.00046952592
0.00032443773
0.00018080941
6.7262928e-05
2.3403042e-05
2.4028999e-05
7.1681848e-05
0.00019275322
0.00034164369
0.00048852041
0.00049989119
0.0003538447
0.00020213875
7.534044e-05
2.4536626e-05
2.4911191e-05
7.7864531e-05
0.00020789257
0.00035913802
0.00050087842
0.00048891635
0.00035575812
0.00020899949
7.8928992e-05
2.5173606e-05
2.5431484e-05
7.8096326e-05
0.00020358403
0.00034015774
0.00045931695
0.00040336306
0.00030319663
0.00018731845
7.4280957e-05
2.5295203e-05
2.1281631e-05
4.2622838e-05
0.00011174327
0.00019821559
0.0002830772
0.00018888213
0.00011055406
5.1174416e-05
2.0201785e-05
1.5540528e-05
1.3041464e-05
1.7195704e-05
4.6893568e-05
0.00010448534
0.00018059152
0.00021011924
0.00013497169
7.0003277e-05
2.4643335e-05
9.1450602e-06
6.6698037e-06
4.2129388e-05
0.00010532055
0.00017799893
0.00025463423
0.00035161402
0.0002599843
0.00016242142
6.7228396e-05
7.6233503e-06
1.00128e-05
8.6021017e-05
0.00021178343
0.00034064872
0.00045865077
0.00055361711
0.0004114283
0.00025578802
0.00010348759
1.2147274e-05
1.3648102e-05
0.00011879493
0.00028842193
0.00045879558
0.00061496146
0.00064554588
0.00048479283
0.00031141731
0.00013365709
1.4741004e-05
1.5297197e-05
0.00014151421
0.00031176701
0.000479015
0.00064160831
0.00061680445
0.0004495227
0.00028494738
0.00012690535
1.6920198e-05
1.9070736e-05
0.00010812374
0.00025306992
0.00041589473
0.00058918793
0.00052188562
0.00035120851
0.00020143093
8.2860214e-05
2.1896458e-05
2.4965629e-05
7.3356693e-05
0.00018135892
0.00033037335
0.00050729472
0.00055174705
0.00035817437
0.00019359664
7.7055375e-05
2.7770206e-05
2.9964287e-05
8.7511417e-05
0.00022393159
0.00041270291
0.00062685152
0.0006992446
0.00046762201
0.00025621497
9.8824199e-05
3.1534218e-05
3.2617617e-05
0.00010687482
0.0002793305
0.00050615558
0.0007489692
0.00076761431
0.00052102714
0.00028787323
0.00010950315
3.3348555e-05
3.3979911e-05
0.0001068762
0.00028286282
0.00051459554
0.0007577763
0.00072302948
0.00049173213
0.00026915155
0.00010192389
3.5012383e-05
3.3280725e-05
8.6174316e-05
0.00022575905
0.00041770953
0.00061679453
0.00063817219
0.00043698188
0.00024757567
0.00010435719
2.786205e-05
2.6341446e-05
0.00012196023
0.00030087779
0.00051712135
0.00073711873
0.00073441683
0.00051495713
0.00030010762
0.00011969428
2.3718514e-05
2.0895492e-05
0.00011116524
0.00028094819
0.00048231036
0.00069067474
0.00066383625
0.00046291845
0.00027042287
0.00010649516
1.8436282e-05
1.7111004e-05
0.00010802612
0.00027616436
0.0004723223
0.00067727295
0.00070450395
0.00048877268
0.0002824902
0.00010778165
1.6846388e-05
1.6991992e-05
0.00010487274
0.00028186703
0.00049599696
0.00072173101
0.00070984959
0.00048310272
0.00027062259
9.9012281e-05
1.6957318e-05
1.6597728e-05
9.1941551e-05
0.00025294625
0.00045407989
0.00066922853
0.00059603403
0.00040879815
0.00023012667
8.4379749e-05
1.6554152e-05
1.7329617e-05
6.0775373e-05
0.00016785991
0.00030419343
0.00044690417
0.00050060668
0.00034845999
0.00019985371
7.4862459e-05
1.6168748e-05
1.4858288e-05
9.0866228e-05
0.00023260143
0.0003935337
0.00055706859
0.00059301605
0.00041839113
0.0002491301
9.9906399e-05
1.3882212e-05
1.3783534e-05
8.3237652e-05
0.00021648414
0.00038019731
0.00055773285
0.00048207644
0.00031588289
0.00017046885
6.2807654e-05
1.4352455e-05
1.4505935e-05
5.4154952e-05
0.00014610527
0.00027498092
0.00042582944
0.0003844327
0.0002450471
0.00012851576
4.8032582e-05
1.4634578e-05
1.4690537e-05
4.2566915e-05
0.00011210978
0.00021618549
0.00034416638
0.00030740837
0.00019038256
9.7825472e-05
3.7865784e-05
1.480266e-05
1.5041145e-05
3.2144906e-05
8.1002228e-05
0.00016063157
0.00026590598
0.00024367589
0.0001446049
7.2852753e-05
3.0239598e-05
1.5039547e-05
2.23713e-05
5.2421506e-05
0.0001376415
0.00025114243
0.0003769012
0.00053442955
0.00038801709
0.00023171034
8.9829271e-05
2.8099095e-05
2.8305077e-05
9.6211315e-05
0.00025777413
0.00044416624
0.00061705769
0.00064275155
0.00045691615
0.00026082516
9.5467623e-05
2.7965459e-05
2.7572058e-05
9.054201e-05
0.00025041879
0.00044541018
0.00063389693
0.0006067199
0.00042124748
0.00023377268
8.4209291e-05
2.6958191e-05
2.6100333e-05
7.7170132e-05
0.00021402472
0.00039036358
0.00056940997
0.00052519562
0.00035569606
0.00019290227
6.9918448e-05
2.4998755e-05
2.3648569e-05
6.2670928e-05
0.00017111773
0.0003183822
0.00047548546
0.00042031712
0.00027852211
0.00014881843
5.5472048e-05
2.2014689e-05
2.0094694e-05
4.8047537e-05
0.00012541485
0.00023502023
0.0003580356
0.00028688613
0.00018670236
0.00010019514
4.0014896e-05
1.771002e-05
1.8401224e-05
4.3006791e-05
0.00010853308
0.00020105873
0.00030578001
0.00032612023
0.00021684393
0.0001179435
4.6456897e-05
1.9015818e-05
1.9785103e-05
5.0615666e-05
0.00012969788
0.00023607671
0.00035029127
0.00037269427
0.00025424423
0.00014094199
5.4471349e-05
2.0591717e-05
2.1236262e-05
5.761718e-05
0.0001499924
0.00026831939
0.00038921058
0.00039812615
0.00027727098
0.00015634249
5.9932216e-05
2.1749038e-05
2.2113294e-05
6.1087144e-05
0.00015904418
0.00027945496
0.00039700243
0.00038438896
0.00027395847
0.00015763025
6.0974599e-05
2.2334352e-05
2.2474456e-05
5.9462977e-05
0.00015112552
0.00025879974
0.00035773681
0.00031361578