/*--------------------------------*- C++ -*----------------------------------*\
| =========                 |                                                 |
| \\      /  F ield         | OpenFOAM: The Open Source CFD Toolbox           |
|  \\    /   O peration     | Version:  2306                                  |
|   \\  /    A nd           | Website:  www.openfoam.com                      |
|    \\/     M anipulation  |                                                 |
\*---------------------------------------------------------------------------*/
FoamFile
{
    version     2.0;
    format      ascii;
    arch        "LSB;label=32;scalar=64";
    class       volScalarField;
    location    "1600";
    object      p;
}
// * * * * * * * * * * * * * * * * * * * * * * * * * * * * * * * * * * * * * //

dimensions      [1 -1 -2 0 0 0 0];

internalField   nonuniform List<scalar> 
225451
(
20.289509
20.570769
20.676027
20.763979
20.837387
20.898614
20.61545
20.56956
20.514638
20.448915
20.355306
20.334284
20.406298
20.466427
20.51657
20.558383
20.546446
20.503611
20.452207
20.390502
20.316476
20.567096
20.677694
20.76999
20.846963
20.91114
20.946318
20.878894
20.797973
20.700859
20.584321
20.58345
20.69311
20.784598
20.860877
20.924454
20.647396
20.598015
20.53874
20.467654
20.359224
19.866148
19.913988
19.954098
19.987601
20.015496
19.993195
19.968787
19.939565
19.9046
19.86122
19.821828
19.854981
19.882635
19.90568
19.924899
19.87871
19.861703
19.841304
19.81681
19.787391
19.770098
19.798572
19.82229
19.842047
19.858516
20.535581
20.492414
20.440622
20.378485
20.303989
20.559155
20.671323
20.764939
20.84302
20.908111
20.94495
20.876687
20.794746
20.696408
20.578412
20.579802
20.697407
20.7954
20.877045
20.945055
20.946078
20.878669
20.797757
20.700647
20.58409
20.580143
20.68919
20.780153
20.855985
20.919186
20.630994
20.582258
20.523745
20.45353
20.351715
19.857852
19.897203
19.936544
19.969393
19.996735
19.215148
19.203236
19.188895
19.17176
19.153719
19.161859
19.177702
19.194192
19.208008
19.219491
19.206796
19.197824
19.187115
19.174334
19.160856
19.134757
19.146072
19.155498
19.163331
19.169879
19.13764
19.131871
19.124946
19.116614
19.106579
19.088683
19.098221
19.106159
19.112766
19.118272
19.108841
19.103564
19.097232
19.089627
19.080486
19.762671
19.790786
19.814199
19.833703
19.849964
20.530736
20.487401
20.435409
20.373042
20.29828
20.555144
20.668015
20.762214
20.840781
20.906277
20.943562
20.87499
20.792675
20.693885
20.575343
20.577539
20.695443
20.793682
20.875529
20.943704
20.942522
20.874365
20.792537
20.694321
20.576444
20.578052
20.695785
20.793883
20.875614
20.943697
20.943983
20.876344
20.795155
20.697714
20.580763
20.573585
20.682455
20.773268
20.848975
20.91207
20.614986
20.566892
20.509151
20.439859
20.341717
19.847562
19.883853
19.922138
19.954087
19.980673
19.206591
19.195047
19.18114
19.164498
19.144409
18.39975
18.408563
18.415824
18.421902
18.426914
18.431567
18.426418
18.420184
18.412761
18.403714
18.406601
18.414231
18.420966
18.426646
18.431349
18.422326
18.419114
18.415307
18.410813
18.405954
18.391851
18.395419
18.398389
18.400845
18.402911
18.385481
18.383636
18.38142
18.378744
18.375498
18.362218
18.365282
18.367826
18.369943
18.371706
18.36401
18.362373
18.360414
18.358061
18.355223
18.351588
18.354241
18.35644
18.358274
18.35981
19.10411
19.098964
19.092795
19.085391
19.076496
19.759107
19.787041
19.810304
19.829687
19.84585
20.528229
20.484822
20.432745
20.370283
20.295416
20.552975
20.666103
20.760516
20.839266
20.904914
20.942245
20.873581
20.791151
20.692227
20.573528
20.576071
20.694035
20.792327
20.874219
20.94243
20.941358
20.873193
20.791353
20.693124
20.575236
20.574116
20.691995
20.790215
20.872047
20.940206
20.941238
20.873073
20.791238
20.693013
20.575125
20.576265
20.694102
20.792286
20.87409
20.942234
20.941941
20.874131
20.792736
20.695051
20.577808
20.568594
20.677587
20.7685
20.844292
20.907459
20.605517
20.557712
20.500319
20.43144
20.334625
19.839748
19.875582
19.913161
19.944504
19.970581
19.198951
19.187777
19.174308
19.15817
19.138722
18.395945
18.404439
18.411456
18.417315
18.422146
17.65216
17.64988
17.647088
17.643741
17.639666
17.641981
17.646216
17.64968
17.652582
17.654952
17.65717
17.654774
17.651845
17.648369
17.644089
17.644769
17.64839
17.651393
17.653944
17.656042
17.650459
17.649181
17.647687
17.64595
17.643853
17.636101
17.637278
17.638258
17.639057
17.639745
17.630585
17.629973
17.629234
17.628339
17.627239
17.618729
17.619787
17.620664
17.621393
17.621999
17.616743
17.61619
17.615533
17.614743
17.613786
17.611017
17.611856
17.61255
17.61313
17.613623
17.611997
17.611545
17.611014
17.610383
17.609614
18.349759
18.352316
18.354436
18.356203
18.357685
19.101786
19.096699
19.090601
19.083287
19.074495
19.757264
19.785137
19.808351
19.827696
19.843826
20.526851
20.483404
20.431281
20.368769
20.293842
20.55167
20.664901
20.759397
20.838217
20.903925
20.941162
20.872466
20.789997
20.691027
20.572273
20.574911
20.692905
20.791222
20.873137
20.941365
20.940355
20.872174
20.790315
20.692063
20.574149
20.573115
20.691023
20.789269
20.871123
20.939298
20.938248
20.870076
20.788229
20.689991
20.572093
20.573002
20.690866
20.789074
20.870897
20.93905
20.939959
20.871795
20.789964
20.691744
20.573862
20.574709
20.692586
20.790804
20.872637
20.940806
20.940119
20.872221
20.790723
20.692916
20.575532
20.565234
20.674307
20.765287
20.841139
20.904358
20.599975
20.552307
20.495082
20.426403
20.330079
19.834923
19.87038
19.907586
19.938607
19.964415
19.193742
19.182783
19.169576
19.153736
19.134677
18.392933
18.401183
18.408017
18.41371
18.418409
17.649676
17.647475
17.644786
17.641552
17.637631
16.882131
16.884119
16.885754
16.887103
16.888198
16.889733
16.888591
16.887176
16.885471
16.883387
16.884695
16.886865
16.888633
16.890109
16.891298
16.892381
16.891187
16.889706
16.887948
16.885767
16.885755
16.887611
16.889081
16.890331
16.891351
16.888042
16.887477
16.886827
16.886086
16.885093
16.880828
16.881257
16.881611
16.881897
16.882154
16.877409
16.877169
16.876877
16.876524
16.876077
16.870999
16.871453
16.871832
16.872145
16.872407
16.869236
16.868996
16.868713
16.868371
16.867958
16.866165
16.866513
16.866796
16.867034
16.867243
16.866189
16.866007
16.865802
16.865558
16.865257
16.864689
16.864965
16.865188
16.865375
16.865545
17.611029
17.610597
17.610086
17.609481
17.608744
18.348631
18.351148
18.353234
18.354977
18.356437
19.100417
19.09535
19.089273
19.081989
19.073232
19.756017
19.783881
19.807086
19.826428
19.842551
20.52581
20.482338
20.430185
20.367639
20.292673
20.550598
20.663874
20.758407
20.837257
20.902991
20.940103
20.871392
20.788905
20.689915
20.57114
20.573773
20.691785
20.79012
20.872051
20.940292
20.939306
20.87111
20.789231
20.690957
20.573019
20.572038
20.689978
20.788253
20.870131
20.938327
20.937381
20.869186
20.787309
20.689036
20.571099
20.570318
20.688241
20.786503
20.868371
20.93656
20.937319
20.869155
20.78732
20.689096
20.571216
20.572035
20.68988
20.788072
20.869882
20.938027
20.938834
20.870675
20.788852
20.690645
20.572778
20.573441
20.691325
20.789548
20.871388
20.939565
20.938609
20.870674
20.789134
20.691279
20.57384
20.563016
20.672125
20.763136
20.839016
20.902262
20.596716
20.549108
20.49196
20.423371
20.327233
19.831991
19.867222
19.904239
19.935094
19.96077
19.190454
19.179613
19.166554
19.150878
19.132034
18.390839
18.398932
18.405647
18.411234
18.41585
17.647845
17.645701
17.643087
17.639934
17.636125
16.881159
16.883073
16.884652
16.885951
16.887009
16.132577
16.132071
16.131443
16.130667
16.129722
16.130266
16.131259
16.132071
16.132733
16.133264
16.134133
16.133575
16.132873
16.132016
16.130962
16.13163
16.132738
16.133633
16.134374
16.13496
16.135484
16.134894
16.134149
16.133254
16.132137
16.131918
16.132873
16.133607
16.134225
16.134722
16.132803
16.132553
16.132267
16.131945
16.131479
16.129214
16.129362
16.129484
16.129578
16.129681
16.12724
16.127139
16.127018
16.126869
16.126679
16.123781
16.123995
16.124175
16.124326
16.12445
16.122731
16.122615
16.122478
16.122311
16.122108
16.121092
16.121257
16.12139
16.121501
16.1216
16.120973
16.120889
16.120799
16.120691
16.120556
16.120209
16.120325
16.120415
16.120491
16.120565
16.120219
16.120148
16.12008
16.120004
16.119897
16.864202
16.86447
16.864682
16.864863
16.865026
17.610287
17.609861
17.609359
17.608767
17.608038
18.347729
18.350238
18.352313
18.354047
18.3555
19.099378
19.094315
19.088243
19.080966
19.072216
19.75496
19.78283
19.80604
19.825387
19.841513
20.524846
20.481358
20.429188
20.366622
20.291632
20.549588
20.662885
20.757436
20.836299
20.902043
20.939032
20.870315
20.787821
20.688823
20.570041
20.572635
20.690653
20.788993
20.870928
20.939176
20.938179
20.869976
20.788091
20.689811
20.571866
20.570927
20.688878
20.787163
20.86905
20.937255
20.936417
20.868209
20.786317
20.688029
20.570074
20.569404
20.687351
20.785634
20.867521
20.935726
20.93518
20.866985
20.785114
20.686851
20.568929
20.569726
20.687622
20.785861
20.867711
20.93589
20.93656
20.868407
20.78659
20.688389
20.570537
20.571277
20.689097
20.787268
20.869061
20.937196
20.937927
20.869776
20.787966
20.689775
20.57193
20.572466
20.690341
20.788558
20.870394
20.93857
20.937423
20.869475
20.787921
20.690052
20.572599
20.561529
20.67065
20.761671
20.837563
20.90082
20.594719
20.547136
20.490021
20.421472
20.325404
19.830171
19.865268
19.902189
19.932956
19.958566
19.188394
19.177617
19.164641
19.149059
19.130337
18.389458
18.397448
18.404089
18.40961
18.414176
17.646611
17.644503
17.641937
17.638842
17.635112
16.880507
16.882365
16.883902
16.885167
16.886198
16.132121
16.131632
16.131026
16.13028
16.129371
15.38165
15.382053
15.382379
15.382637
15.382843
15.383039
15.382822
15.382545
15.382199
15.381772
15.382017
15.382475
15.382845
15.383141
15.383372
15.383811
15.383561
15.383243
15.382845
15.382348
15.382644
15.383174
15.383599
15.383941
15.384206
15.384452
15.384179
15.383829
15.383398
15.382856
15.382614
15.383079
15.383427
15.383713
15.38394
15.382853
15.382758
15.382646
15.382521
15.382321
15.3812
15.381234
15.381257
15.381275
15.381305
15.380064
15.380029
15.37999
15.379944
15.379879
15.378307
15.378398
15.378475
15.378538
15.37859
15.377733
15.377682
15.377619
15.377542
15.377451
15.376908
15.376986
15.377052
15.377101
15.377144
15.376779
15.376745
15.376715
15.376669
15.376605
15.376332
15.376372
15.376399
15.376416
15.376442
15.376134
15.376115
15.376106
15.376098
15.376075
15.375772
15.375785
15.375782
15.375781
15.375798
16.119801
16.119734
16.119672
16.119603
16.1195
16.863635
16.863903
16.864108
16.864283
16.864442
17.609517
17.609094
17.608599
17.60801
17.607281
18.346811
18.349322
18.351395
18.353123
18.354574
19.098368
19.093303
19.087233
19.079956
19.071202
19.753889
19.781767
19.804982
19.824333
19.840463
20.523821
20.480323
20.428143
20.365567
20.290562
20.548525
20.661833
20.756395
20.835264
20.901012
20.937883
20.869163
20.786668
20.687668
20.568886
20.571421
20.689434
20.78777
20.869703
20.93795
20.936911
20.86871
20.786831
20.688558
20.570621
20.569713
20.687656
20.785934
20.867817
20.93602
20.935284
20.867075
20.785184
20.686897
20.568945
20.568397
20.686348
20.784636
20.866528
20.934738
20.934323
20.86612
20.784239
20.685965
20.568033
20.567936
20.685828
20.784067
20.865921
20.934105
20.934799
20.866623
20.78478
20.686552
20.568671
20.569372
20.687228
20.785432
20.867255
20.935415
20.936016
20.86788
20.786088
20.687919
20.570105
20.570781
20.688567
20.78671
20.868481
20.936602
20.937278
20.869138
20.787345
20.689177
20.571359
20.5718
20.689656
20.787858
20.869683
20.937852
20.936561
20.868612
20.787059
20.689191
20.571744
20.560547
20.669665
20.760687
20.83658
20.899839
20.593421
20.545854
20.48876
20.420239
20.324206
19.829008
19.864007
19.900864
19.931575
19.95714
19.187048
19.176314
19.163397
19.14788
19.129243
18.388582
18.3965
18.403086
18.408559
18.413091
17.645826
17.643742
17.641213
17.638162
17.634486
16.880139
16.881955
16.883459
16.884697
16.885712
16.131886
16.131409
16.13082
16.130099
16.129219
15.381649
15.382035
15.382345
15.382592
15.38279
14.636815
14.636747
14.636663
14.636555
14.636412
14.636336
14.63649
14.636608
14.6367
14.636769
14.636808
14.636732
14.636633
14.636501
14.636331
14.636388
14.636579
14.636725
14.636836
14.636922
14.637097
14.637002
14.636877
14.636711
14.636497
14.636585
14.63682
14.637003
14.637142
14.637249
14.637357
14.637244
14.637094
14.6369
14.636653
14.636456
14.636668
14.63682
14.63694
14.637034
14.636436
14.636407
14.636373
14.636336
14.636261
14.635755
14.635745
14.635731
14.635721
14.635727
14.635086
14.635079
14.635075
14.635077
14.63507
14.634274
14.634304
14.634328
14.634347
14.634362
14.634013
14.633994
14.63397
14.633938
14.6339
14.63358
14.633615
14.63365
14.633679
14.633703
14.633411
14.633392
14.63337
14.633342
14.633314
14.633064
14.633076
14.633087
14.63309
14.633095
14.632764
14.63277
14.63279
14.632803
14.632809
14.632502
14.632474
14.632437
14.632402
14.632392
14.632023
14.632037
14.63208
14.632131
14.632171
15.375383
15.375392
15.37538
15.375371
15.375385
16.119255
16.119193
16.119136
16.11907
16.118967
16.862919
16.863188
16.863391
16.863564
16.863719
17.608636
17.608216
17.607722
17.607133
17.606401
18.345801
18.348316
18.350387
18.352116
18.353568
19.097289
19.092223
19.086154
19.078876
19.070117
19.752745
19.780631
19.80385
19.823204
19.839337
20.522707
20.479202
20.427015
20.364431
20.289415
20.547381
20.660697
20.755266
20.834139
20.89989
20.936645
20.867924
20.785428
20.686428
20.567647
20.570106
20.688109
20.786438
20.868365
20.93661
20.935503
20.867309
20.785442
20.687184
20.569265
20.56838
20.686302
20.784562
20.86643
20.934625
20.933987
20.865784
20.783905
20.685632
20.567699
20.567276
20.685215
20.783495
20.865381
20.933589
20.933342
20.865139
20.78326
20.684989
20.567062
20.567119
20.685009
20.783248
20.8651
20.933287
20.933414
20.865254
20.783443
20.685257
20.567428
20.56813
20.68596
20.784145
20.865955
20.934111
20.934677
20.866529
20.784729
20.686553
20.568733
20.569301
20.687099
20.785254
20.867037
20.935169
20.935723
20.867611
20.785855
20.68773
20.569968
20.570582
20.688322
20.786426
20.868167
20.936267
20.936897
20.868774
20.787007
20.688872
20.571094
20.571456
20.689281
20.787457
20.869262
20.937416
20.936012
20.868071
20.786529
20.688676
20.571248
20.559962
20.669069
20.760082
20.835969
20.899225
20.592556
20.545008
20.487939
20.419448
20.323445
19.828278
19.863176
19.899966
19.93062
19.956145
19.186118
19.175421
19.162557
19.147102
19.128546
18.388052
18.395907
18.402444
18.407875
18.412378
17.64536
17.643295
17.6408
17.637787
17.634157
16.880001
16.881786
16.883263
16.884478
16.885482
16.131844
16.131373
16.130799
16.130097
16.129239
15.38176
15.38213
15.382427
15.382663
15.382857
14.636936
14.636872
14.636795
14.636694
14.636558
13.892731
13.89277
13.89279
13.892801
13.892813
13.892673
13.892659
13.892643
13.892618
13.892576
13.892472
13.89252
13.892549
13.892569
13.892584
13.892548
13.892531
13.892508
13.892471
13.892413
13.892387
13.892458
13.892503
13.892532
13.892553
13.892592
13.892565
13.892528
13.892471
13.892388
13.892371
13.892467
13.892539
13.892585
13.892616
13.892654
13.892615
13.892559
13.892476
13.892367
13.892215
13.89231
13.892373
13.892416
13.892452
13.892141
13.892138
13.892131
13.892124
13.892095
13.891884
13.891868
13.891848
13.891834
13.89183
13.891445
13.891449
13.891459
13.891472
13.891482
13.891062
13.891062
13.891063
13.891061
13.89106
13.890975
13.890969
13.890964
13.890958
13.890949
13.890801
13.890815
13.890832
13.890851
13.890865
13.89067
13.890654
13.890628
13.890603
13.890589
13.890269
13.890274
13.890293
13.890308
13.89032
13.889932
13.889932
13.889939
13.889944
13.889954
13.889668
13.889642
13.889612
13.889576
13.889556
13.889158
13.889186
13.889243
13.889298
13.889346
13.889013
13.888948
13.888875
13.888809
13.888777
14.631632
14.631649
14.631695
14.631756
14.631801
15.374874
15.374887
15.374873
15.374863
15.374873
16.118563
16.118504
16.118449
16.118385
16.118275
16.862048
16.862323
16.86253
16.862702
16.862854
17.60764
17.607222
17.606727
17.606135
17.605398
18.344694
18.347215
18.349289
18.35102
18.352471
19.096138
19.091071
19.085001
19.07772
19.068955
19.751526
19.77942
19.802644
19.822001
19.838135
20.521516
20.478006
20.425813
20.363222
20.288196
20.546156
20.659479
20.754055
20.832934
20.898686
20.935326
20.866604
20.784107
20.685106
20.566325
20.568695
20.686687
20.785008
20.866928
20.935169
20.933978
20.865793
20.783942
20.685703
20.567806
20.566939
20.684834
20.78307
20.864917
20.9331
20.932563
20.864372
20.782513
20.684264
20.566358
20.566042
20.683958
20.782218
20.864088
20.932286
20.932225
20.864029
20.782162
20.683906
20.565998
20.566174
20.684051
20.782279
20.864124
20.932307
20.932532
20.864373
20.782564
20.684383
20.566563
20.567365
20.685114
20.783226
20.864981
20.933109
20.933959
20.865839
20.784091
20.685985
20.568245
20.568727
20.686453
20.784553
20.866293
20.934402
20.934844
20.866751
20.785027
20.686944
20.569231
20.569629
20.687316
20.785379
20.867088
20.935164
20.935685
20.867627
20.785942
20.687906
20.570248
20.570793
20.688436
20.786459
20.868134
20.936182
20.936777
20.868703
20.786996
20.688935
20.571246
20.571538
20.689283
20.787395
20.869145
20.937257
20.935767
20.867856
20.786353
20.688548
20.571179
20.559791
20.668863
20.759848
20.835713
20.898951
20.592045
20.544529
20.487498
20.419054
20.323091
19.827927
19.86269
19.899392
19.929974
19.955444
19.185461
19.174813
19.16201
19.146632
19.128172
18.387804
18.395591
18.402072
18.407458
18.41193
17.645138
17.643093
17.640626
17.63765
17.634066
16.880066
16.881822
16.883274
16.884471
16.88546
16.131953
16.13149
16.130928
16.130242
16.129406
15.381964
15.382324
15.382611
15.382842
15.383033
14.637136
14.637075
14.636999
14.636902
14.636772
13.892928
13.892965
13.892982
13.892993
13.893002
13.149839
13.149846
13.149856
13.149865
13.149857
13.149716
13.149731
13.149724
13.149714
13.149707
13.149569
13.149577
13.149587
13.14959
13.149574
13.149447
13.149464
13.149464
13.149457
13.149449
13.149377
13.149382
13.149388
13.149386
13.149366
13.149303
13.149327
13.149334
13.149332
13.149329
13.149311
13.149312
13.14931
13.149296
13.149261
13.149218
13.149261
13.149285
13.149293
13.149298
13.149326
13.149317
13.149302
13.149267
13.149205
13.149106
13.149168
13.149197
13.149209
13.149219
13.149064
13.149069
13.149069
13.149065
13.149035
13.148931
13.148922
13.148909
13.148901
13.148895
13.148558
13.148563
13.148571
13.148582
13.148593
13.14829
13.148278
13.148272
13.148263
13.148257
13.148257
13.14826
13.148264
13.148269
13.148276
13.148241
13.148237
13.14824
13.148248
13.148254
13.148185
13.148171
13.14815
13.148134
13.148128
13.147877
13.147887
13.147907
13.147929
13.147944
13.147561
13.147554
13.147544
13.147532
13.147534
13.147167
13.147147
13.147139
13.147127
13.147121
13.146727
13.146752
13.146791
13.146824
13.146861
13.146575
13.146519
13.14646
13.146397
13.146361
13.146007
13.146048
13.146124
13.146204
13.146278
13.888689
13.888618
13.888535
13.888464
13.888429
14.631194
14.631215
14.631264
14.631327
14.631368
15.374249
15.374269
15.374255
15.374247
15.374252
16.117751
16.117694
16.117638
16.117569
16.117451
16.861075
16.861361
16.861571
16.861744
16.861897
17.606588
17.606167
17.60567
17.605075
17.604327
18.343545
18.346075
18.348153
18.349886
18.351338
19.094956
19.089891
19.083817
19.076533
19.067759
19.750271
19.778174
19.801403
19.820764
19.8369
20.520291
20.476778
20.424579
20.361979
20.286942
20.544886
20.658214
20.752797
20.831681
20.897435
20.933967
20.865243
20.782744
20.68374
20.564958
20.567225
20.685207
20.783519
20.865434
20.933672
20.932385
20.86421
20.782376
20.684156
20.566281
20.56544
20.683305
20.781514
20.863339
20.931508
20.931046
20.862869
20.781034
20.682813
20.56494
20.564769
20.682655
20.780889
20.862736
20.930921
20.930991
20.862805
20.780954
20.682719
20.564835
20.565101
20.682961
20.781174
20.863008
20.931183
20.931509
20.863353
20.781551
20.683381
20.565575
20.566249
20.683999
20.782112
20.86387
20.932001
20.932307
20.86419
20.782454
20.684375
20.566666
20.567952
20.685622
20.783668
20.865376
20.933469
20.934363
20.866313
20.784656
20.686666
20.569062
20.570064
20.687577
20.785484
20.867067
20.935054
20.935289
20.867359
20.785841
20.688009
20.570594
20.570965
20.688313
20.78609
20.867563
20.935449
20.935914
20.868056
20.786615
20.688874
20.571569
20.572062
20.689356
20.787089
20.868524
20.936375
20.936947
20.869063
20.787588
20.689807
20.572454
20.572624
20.690064
20.787921
20.86946
20.937398
20.93585
20.868073
20.786733
20.689123
20.57199
20.56032
20.66925
20.760118
20.835884
20.899043
20.591909
20.544467
20.487525
20.419191
20.323339
19.82811
19.862662
19.89922
19.929683
19.955054
19.185079
19.174503
19.161795
19.14653
19.128209
18.387847
18.395552
18.401965
18.407294
18.411723
17.645132
17.643112
17.640677
17.637739
17.634203
16.880302
16.88203
16.883459
16.884638
16.885614
16.132196
16.131739
16.131186
16.13051
16.129685
15.382252
15.38261
15.382895
15.383126
15.383318
14.637419
14.637354
14.637276
14.637175
14.637038
13.893164
13.893207
13.893231
13.89325
13.893263
13.150042
13.150046
13.15005
13.150054
13.150043
12.407254
12.407254
12.407244
12.407231
12.407223
12.407073
12.407084
12.407095
12.407105
12.407104
12.407049
12.407065
12.407061
12.407053
12.407043
12.406952
12.406963
12.406973
12.406976
12.406959
12.406858
12.406874
12.406868
12.406855
12.406842
12.406768
12.40678
12.406792
12.406799
12.406784
12.406704
12.406724
12.40672
12.406708
12.406696
12.406645
12.406656
12.406664
12.40666
12.406636
12.406566
12.406599
12.406612
12.406612
12.406604
12.406627
12.406631
12.406624
12.4066
12.406549
12.406487
12.406547
12.406573
12.406585
12.406584
12.406625
12.406629
12.406614
12.406583
12.406517
12.40641
12.406416
12.406419
12.406421
12.406419
12.406072
12.406074
12.406072
12.406069
12.406064
12.405801
12.405796
12.405795
12.405792
12.405786
12.405796
12.405796
12.405809
12.405812
12.405821
12.405853
12.405843
12.405841
12.405832
12.405833
12.405835
12.405831
12.405827
12.405818
12.40582
12.405685
12.405694
12.40571
12.405722
12.405728
12.40548
12.405476
12.405466
12.405451
12.405445
12.405112
12.405109
12.405115
12.405114
12.405112
12.404701
12.404713
12.404734
12.404748
12.404769
12.404467
12.404427
12.404391
12.404347
12.40432
12.403993
12.404034
12.404099
12.40416
12.404216
12.403975
12.403899
12.403813
12.403734
12.403687
13.145708
13.145753
13.145835
13.145929
13.146011
13.888352
13.888283
13.888197
13.888124
13.888086
14.630698
14.630722
14.630773
14.630834
14.630865
15.373529
15.373562
15.373553
15.373545
15.373548
16.116889
16.116831
16.116769
16.116695
16.116564
16.860087
16.860387
16.860603
16.860782
16.86094
17.605566
17.605143
17.604643
17.60404
17.603278
18.34243
18.344972
18.347055
18.348784
18.350236
19.093817
19.088752
19.082673
19.075376
19.066592
19.749043
19.776955
19.800193
19.819557
19.835696
20.519094
20.475575
20.423371
20.360763
20.285714
20.543628
20.656961
20.751549
20.830437
20.896194
20.932631
20.863904
20.781402
20.682395
20.563611
20.565768
20.683738
20.782044
20.863954
20.932189
20.930797
20.862632
20.780814
20.682615
20.564762
20.563945
20.681782
20.779964
20.861766
20.92992
20.929526
20.861366
20.779556
20.681367
20.563525
20.563483
20.681337
20.77954
20.861366
20.929536
20.92974
20.861566
20.779734
20.681523
20.563665
20.564011
20.68185
20.780044
20.861864
20.93003
20.930425
20.862275
20.780483
20.682328
20.564535
20.565085
20.682826
20.780934
20.86269
20.930821
20.931037
20.862913
20.781165
20.683071
20.565347
20.564881
20.68261
20.780711
20.862464
20.930587
20.931981
20.863878
20.782152
20.684083
20.566393
20.568161
20.685744
20.783723
20.865373
20.933415
20.934723
20.866825
20.785349
20.687578
20.570238
20.572309
20.68922
20.786637
20.867818
20.935471
20.935954
20.868588
20.787752
20.690739
20.574302
20.575346
20.691451
20.788193
20.868803
20.935975
20.936523
20.869441
20.788934
20.692318
20.576363
20.576903
20.692833
20.789429
20.86992
20.936987
20.937555
20.870435
20.789881
20.693207
20.577185
20.576943
20.693176
20.790029
20.870735
20.93798
20.936389
20.869138
20.78843
20.691581
20.575364
20.562569
20.670954
20.761368
20.836759
20.899605
20.5922
20.544974
20.48829
20.420264
20.324829
19.829313
19.863491
19.899757
19.929975
19.955148
19.185118
19.174672
19.162123
19.147047
19.128952
18.388298
18.395891
18.402212
18.407465
18.411832
17.645358
17.643367
17.640967
17.638072
17.634584
16.880693
16.882401
16.883812
16.884975
16.885939
16.132578
16.132123
16.131572
16.130899
16.130074
15.382594
15.38297
15.38327
15.383512
15.383712
14.637794
14.63771
14.637608
14.637479
14.637306
13.893382
13.893468
13.893522
13.893565
13.893603
13.150315
13.150302
13.150288
13.150269
13.15023
12.407423
12.407433
12.407431
12.407427
12.407427
11.664767
11.664775
11.664788
11.664801
11.664802
11.664678
11.664683
11.664675
11.664662
11.664651
11.664686
11.664698
11.664703
11.664692
11.66466
11.664833
11.664903
11.66493
11.664924
11.664908
11.664827
11.664842
11.664832
11.664798
11.664727
11.664534
11.664582
11.664603
11.664609
11.6646
11.664511
11.664521
11.664521
11.664508
11.664469
11.664394
11.664432
11.664448
11.664449
11.664439
11.664415
11.664425
11.664418
11.664393
11.664346
11.664329
11.664396
11.664438
11.664456
11.664447
11.66463
11.664636
11.664602
11.664525
11.664411
11.664514
11.664695
11.664811
11.664864
11.66485
11.664833
11.664832
11.664844
11.664777
11.664611
11.664401
11.664454
11.664484
11.66447
11.664483
11.663978
11.663965
11.663968
11.66395
11.663912
11.663606
11.663623
11.663624
11.663623
11.663635
11.663618
11.663613
11.663611
11.663613
11.663609
11.663665
11.66366
11.663655
11.663659
11.663665
11.663709
11.663704
11.663705
11.663706
11.663703
11.663674
11.663686
11.663698
11.663698
11.663701
11.663584
11.663584
11.663583
11.663569
11.663554
11.663331
11.663339
11.663349
11.663346
11.663343
11.663027
11.663035
11.663047
11.663047
11.66305
11.662751
11.662734
11.662717
11.662691
11.662674
11.66233
11.662358
11.662403
11.662441
11.662478
11.662262
11.662207
11.662147
11.66208
11.66204
11.661783
11.66183
11.661914
11.661997
11.66207
12.403757
12.403671
12.40357
12.403483
12.403433
13.145441
13.145489
13.145574
13.145673
13.145753
13.887982
13.887924
13.887841
13.887768
13.887725
14.630156
14.630184
14.630231
14.630288
14.630305
15.372787
15.372835
15.372834
15.37283
15.372835
16.116083
16.116018
16.11595
16.115867
16.115721
16.859196
16.859509
16.859733
16.85992
16.860083
17.604659
17.604232
17.603727
17.603114
17.602344
18.341431
18.343989
18.34609
18.347831
18.349285
19.09279
19.087728
19.081655
19.074359
19.065565
19.747917
19.775836
19.799078
19.818442
19.834586
20.517998
20.47448
20.422269
20.359651
20.284591
20.542464
20.655796
20.750386
20.829276
20.895034
20.931402
20.862672
20.780166
20.681156
20.562372
20.564416
20.682377
20.780674
20.862578
20.93081
20.929318
20.861164
20.779364
20.681187
20.563358
20.562569
20.680375
20.778528
20.860307
20.928446
20.928107
20.859963
20.778177
20.680019
20.562211
20.562297
20.680118
20.778293
20.860095
20.928249
20.928587
20.860427
20.778616
20.680431
20.562604
20.563032
20.680842
20.779014
20.860816
20.92897
20.9294
20.86126
20.779484
20.681344
20.563571
20.56405
20.681778
20.779877
20.861628
20.929754
20.929876
20.861752
20.780004
20.681908
20.564184
20.563662
20.681398
20.779509
20.861264
20.929391
20.928515
20.860388
20.778629
20.680512
20.562764
20.564066
20.681794
20.7799
20.861647
20.929764
20.931266
20.863194
20.781502
20.683464
20.565815
20.568242
20.685631
20.783448
20.864961
20.932883
20.934517
20.867001
20.785978
20.68875
20.57207
20.57835
20.693478
20.789417
20.869367
20.935989
20.937146
20.871727
20.793221
20.699012
20.585949
20.590883
20.702484
20.795477
20.872965
20.937539
20.938142
20.873871
20.796743
20.704182
20.5931
20.593875
20.704877
20.797372
20.874447
20.938672
20.93924
20.874917
20.797725
20.705089
20.593918
20.59239
20.70417
20.797315
20.874929
20.939603
20.937851
20.872516
20.794113
20.700025
20.587122
20.56943
20.676043
20.764977
20.839133
20.900953
20.59333
20.546579
20.490467
20.42313
20.328707
19.83228
19.865875
19.901643
19.931441
19.956269
19.185825
19.175576
19.163268
19.148483
19.130739
18.389275
18.396718
18.402909
18.408056
18.412338
17.645828
17.643867
17.6415
17.638647
17.635209
16.881243
16.88294
16.884335
16.885485
16.886442
16.13311
16.132653
16.132093
16.13141
16.130574
15.383011
15.383428
15.383754
15.384017
15.384235
14.638259
14.638143
14.637995
14.637813
14.637575
13.893544
13.893709
13.893823
13.893914
13.893991
13.150613
13.150567
13.150516
13.150454
13.150365
12.407648
12.407687
12.4077
12.40771
12.407724
11.664956
11.664961
11.664976
11.664993
11.664989
10.922261
10.922252
10.922236
10.922224
10.922219
10.922108
10.922114
10.922126
10.922145
10.922164
10.922129
10.92212
10.922107
10.922098
10.922091
10.922207
10.922209
10.9222
10.922188
10.922174
10.92251
10.922563
10.922591
10.922606
10.922606
10.922699
10.922687
10.922689
10.922669
10.922624
10.922413
10.922463
10.92249
10.922489
10.922493
10.922448
10.922449
10.922449
10.922408
10.922347
10.922305
10.922368
10.92241
10.922408
10.922407
10.92241
10.92241
10.92241
10.922359
10.922281
10.922285
10.922385
10.922436
10.922449
10.922452
10.922558
10.92255
10.922522
10.922458
10.922336
10.922444
10.922591
10.922692
10.922741
10.92277
10.922687
10.922684
10.922634
10.922552
10.922417
10.922274
10.922321
10.92234
10.922363
10.922364
10.921968
10.921963
10.921948
10.921926
10.921903
10.921685
10.921695
10.921711
10.921715
10.92172
10.921722
10.921717
10.921715
10.921707
10.921704
10.921782
10.921784
10.921786
10.921788
10.921793
10.921863
10.921859
10.921855
10.92185
10.92185
10.921892
10.921905
10.921909
10.921914
10.921917
10.9219
10.921898
10.921898
10.921889
10.921872
10.921755
10.921771
10.92178
10.921777
10.921777
10.921574
10.921576
10.921583
10.921578
10.921568
10.921335
10.921335
10.921331
10.921317
10.921309
10.921011
10.921026
10.921053
10.921073
10.921088
10.920858
10.920824
10.920785
10.92074
10.920715
10.92046
10.920497
10.920562
10.920623