/*--------------------------------*- C++ -*----------------------------------*\
| =========                 |                                                 |
| \\      /  F ield         | OpenFOAM: The Open Source CFD Toolbox           |
|  \\    /   O peration     | Version:  2306                                  |
|   \\  /    A nd           | Website:  www.openfoam.com                      |
|    \\/     M anipulation  |                                                 |
\*---------------------------------------------------------------------------*/
FoamFile
{
    version     2.0;
    format      ascii;
    arch        "LSB;label=32;scalar=64";
    class       volScalarField;
    location    "1600";
    object      p_rgh;
}
// * * * * * * * * * * * * * * * * * * * * * * * * * * * * * * * * * * * * * //

dimensions      [1 -1 -2 0 0 0 0];

internalField   nonuniform List<scalar> 
225451
(
20.980181
20.979785
20.979749
20.979715
20.979677
20.979631
20.983219
20.983194
20.983165
20.983146
20.982735
20.979403
20.979342
20.979272
20.979162
20.978993
20.978215
20.978447
20.978609
20.978717
20.978777
20.979021
20.978986
20.978928
20.978861
20.978799
20.978697
20.978729
20.978761
20.97878
20.978774
20.979728
20.979742
20.979749
20.979738
20.979714
20.982768
20.982714
20.982569
20.982427
20.982027
20.981934
20.982667
20.983081
20.98345
20.983572
20.982613
20.982692
20.982627
20.982579
20.982257
20.979475
20.979403
20.979276
20.979058
20.978675
20.977631
20.978139
20.978451
20.978647
20.978745
20.976562
20.976438
20.976231
20.975899
20.975351
20.975956
20.976196
20.976358
20.97647
20.976553
20.976881
20.976842
20.976797
20.976749
20.976698
20.976628
20.976646
20.976655
20.976651
20.976639
20.975973
20.975989
20.975992
20.975981
20.97596
20.977955
20.97799
20.978023
20.978046
20.978039
20.978963
20.978975
20.97898
20.978965
20.978938
20.981818
20.981793
20.981672
20.981527
20.981129
20.980931
20.981609
20.982026
20.982391
20.982503
20.981658
20.981717
20.981404
20.981017
20.980357
20.981124
20.981788
20.98216
20.982476
20.982438
20.981298
20.981594
20.981616
20.981626
20.981332
20.978287
20.978087
20.97782
20.977412
20.97675
20.975775
20.976603
20.977095
20.977411
20.977599
20.975468
20.975267
20.974957
20.974454
20.973577
20.972247
20.973163
20.973665
20.973961
20.974141
20.975118
20.975003
20.974799
20.974459
20.973876
20.974471
20.974722
20.974885
20.974992
20.975066
20.975472
20.975451
20.975417
20.975378
20.975332
20.975251
20.975261
20.975255
20.975232
20.975194
20.9746
20.974644
20.974669
20.974674
20.974662
20.973485
20.973499
20.973494
20.97347
20.973431
20.974683
20.974693
20.974693
20.974681
20.974658
20.976433
20.976469
20.976503
20.97653
20.976534
20.977298
20.977298
20.977293
20.977269
20.977233
20.979492
20.97951
20.979433
20.979333
20.979047
20.978903
20.979441
20.979785
20.980071
20.980109
20.979388
20.979527
20.979292
20.978973
20.978435
20.976803
20.977275
20.977546
20.977698
20.977363
20.97933
20.979593
20.979375
20.979055
20.978481
20.979062
20.979616
20.979909
20.980126
20.979891
20.978666
20.979185
20.979289
20.979358
20.979156
20.976432
20.976178
20.975834
20.975289
20.974373
20.973548
20.974616
20.975229
20.975613
20.975851
20.973942
20.9737
20.97333
20.972718
20.971606
20.970507
20.971665
20.972279
20.972635
20.972856
20.971965
20.971736
20.971379
20.970761
20.969556
20.971034
20.971982
20.97248
20.97277
20.972954
20.973767
20.973648
20.973446
20.973103
20.972494
20.973032
20.973291
20.973454
20.973562
20.97364
20.974117
20.974103
20.974074
20.974043
20.974003
20.973919
20.97392
20.9739
20.973862
20.973812
20.973281
20.973341
20.973382
20.973402
20.9734
20.972321
20.972324
20.972301
20.972258
20.9722
20.971054
20.971112
20.971154
20.971175
20.97117
20.972209
20.972225
20.972222
20.972203
20.972166
20.973275
20.973281
20.973278
20.973263
20.973238
20.974777
20.974813
20.974848
20.974878
20.974888
20.975521
20.975513
20.975497
20.975465
20.975426
20.977242
20.977291
20.977248
20.977177
20.976961
20.976851
20.977294
20.977581
20.9778
20.977775
20.977133
20.977335
20.977165
20.976897
20.976454
20.975066
20.975455
20.97568
20.975774
20.975383
20.973376
20.973925
20.973886
20.973688
20.973332
20.974717
20.975144
20.975386
20.975476
20.974978
20.976539
20.976975
20.976829
20.976543
20.976028
20.976346
20.97684
20.977102
20.97725
20.976845
20.975554
20.976265
20.976405
20.97646
20.97628
20.97394
20.973683
20.973318
20.972695
20.971592
20.970791
20.972001
20.972664
20.973061
20.97331
20.97161
20.971358
20.970986
20.970349
20.969132
20.968277
20.969538
20.97018
20.970547
20.970788
20.97026
20.970001
20.969621
20.968956
20.967626
20.967331
20.968762
20.969474
20.969881
20.970151
20.971421
20.971189
20.970825
20.970188
20.968934
20.970143
20.971116
20.971615
20.971904
20.972087
20.972715
20.972595
20.972394
20.972054
20.971424
20.971892
20.972158
20.972322
20.972432
20.97251
20.973036
20.973029
20.973003
20.972975
20.972937
20.972821
20.972818
20.97279
20.972744
20.972686
20.972188
20.972258
20.972308
20.972337
20.97234
20.971322
20.971318
20.971284
20.971229
20.971158
20.9701
20.970174
20.970231
20.970265
20.970268
20.969218
20.969216
20.969185
20.969131
20.969059
20.969916
20.969968
20.970005
20.970022
20.970014
20.970932
20.97095
20.970952
20.970939
20.970909
20.971883
20.971884
20.971875
20.971857
20.971831
20.973146
20.973182
20.973218
20.973252
20.973269
20.973792
20.973774
20.973749
20.973712
20.973671
20.975122
20.975194
20.975175
20.975128
20.974972
20.97491
20.975268
20.975505
20.975669
20.975593
20.97502
20.975271
20.975156
20.974936
20.974579
20.973418
20.97373
20.973911
20.973956
20.973519
20.971843
20.972436
20.972444
20.972287
20.972001
20.97051
20.97078
20.970924
20.970876
20.97014
20.971296
20.971987
20.971992
20.971806
20.97147
20.972451
20.972851
20.97308
20.973122
20.972478
20.9736
20.974192
20.974101
20.973829
20.973355
20.973417
20.973882
20.974139
20.974235
20.973674
20.972327
20.973221
20.973376
20.973374
20.973168
20.971268
20.971056
20.970723
20.970085
20.96885
20.967956
20.969186
20.969819
20.970169
20.97039
20.968755
20.968518
20.968208
20.967667
20.966536
20.965872
20.966998
20.967532
20.967854
20.968118
20.967959
20.967675
20.967318
20.966726
20.965505
20.96552
20.96691
20.967593
20.968001
20.968307
20.96881
20.968492
20.96804
20.967264
20.965684
20.967149
20.968682
20.969435
20.96986
20.970132
20.970951
20.970722
20.970357
20.969711
20.968404
20.969347
20.970343
20.97084
20.971125
20.971304
20.971747
20.971629
20.971432
20.971095
20.970451
20.970843
20.971116
20.97128
20.971389
20.971466
20.972019
20.972016
20.971992
20.971964
20.971927
20.971755
20.971748
20.971717
20.971668
20.971608
20.97111
20.971181
20.971234
20.971266
20.971272
20.97028
20.970272
20.970234
20.970175
20.970101
20.96911
20.969191
20.969255
20.969296
20.969305
20.96836
20.968352
20.96831
20.968245
20.968162
20.967358
20.967436
20.967497
20.967534
20.967539
20.968288
20.96829
20.968266
20.96822
20.968156
20.968921
20.968963
20.968992
20.969001
20.96899
20.969806
20.969826
20.969834
20.969829
20.969808
20.970667
20.970661
20.970646
20.970624
20.970597
20.971721
20.971756
20.971793
20.97183
20.971854
20.972297
20.97227
20.972238
20.972197
20.972155
20.973309
20.973398
20.9734
20.973373
20.973266
20.973252
20.973539
20.973732
20.973847
20.97373
20.973223
20.973516
20.973448
20.973271
20.972986
20.972032
20.97228
20.97242
20.97242
20.971943
20.970549
20.971185
20.971235
20.971119
20.970892
20.969718
20.969932
20.970035
20.969944
20.969164
20.967978
20.968906
20.96904
20.968951
20.968747
20.969237
20.969496
20.969629
20.969539
20.968658
20.969458
20.970295
20.970341
20.970166
20.969844
20.970444
20.970827
20.971048
20.971045
20.970253
20.970982
20.971732
20.971692
20.971426
20.970973
20.970841
20.971301
20.971565
20.971614
20.970895
20.969518
20.970609
20.970787
20.97072
20.970458
20.968944
20.9688
20.968521
20.967895
20.966546
20.965485
20.966652
20.967213
20.967494
20.967665
20.965844
20.965642
20.965426
20.965048
20.964161
20.963527
20.964261
20.96459
20.964831
20.965098
20.96514
20.964824
20.964519
20.964116
20.963299
20.963495
20.964528
20.965041
20.965404
20.965748
20.966637
20.966272
20.965844
20.965191
20.963876
20.96434
20.965954
20.96675
20.967238
20.967608
20.969276
20.968962
20.968481
20.967629
20.965871
20.966971
20.96859
20.969366
20.969795
20.970059
20.970452
20.970234
20.969876
20.969232
20.967888
20.968579
20.969593
20.970082
20.970359
20.970529
20.970806
20.970693
20.970502
20.970172
20.969518
20.969837
20.970115
20.970278
20.970386
20.97046
20.971021
20.971019
20.970997
20.970968
20.97093
20.97068
20.970673
20.970641
20.970592
20.970534
20.970005
20.970072
20.970122
20.970153
20.970158
20.969156
20.969149
20.969113
20.969058
20.96899
20.968048
20.968126
20.968188
20.968228
20.968237
20.967401
20.96739
20.967345
20.967277
20.967193
20.966503
20.966588
20.966656
20.9667
20.96671
20.966161
20.966155
20.966119
20.96606
20.965985
20.966723
20.966788
20.966838
20.966865
20.966866
20.967527
20.967534
20.967519
20.967485
20.967435
20.968123
20.968153
20.96817
20.968171
20.968156
20.968897
20.96892
20.968934
20.968937
20.968927
20.96969
20.969677
20.969656
20.969631
20.969603
20.970568
20.970601
20.970639
20.970679
20.970709
20.971095
20.971061
20.971022
20.970979
20.970938
20.971846
20.971947
20.971966
20.971955
20.971887
20.971919
20.972148
20.9723
20.972375
20.972223
20.971777
20.972105
20.972079
20.971941
20.971717
20.970946
20.971138
20.971239
20.9712
20.970686
20.969526
20.970201
20.970292
20.970214
20.970042
20.969131
20.969292
20.969354
20.969221
20.968396
20.967439
20.968418
20.968597
20.968552
20.968402
20.967934
20.968061
20.968077
20.967836
20.966708
20.967055
20.968143
20.968334
20.96827
20.968086
20.968338
20.968578
20.968688
20.968546
20.967502
20.968027
20.969026
20.969124
20.968969
20.968668
20.96898
20.969341
20.969544
20.969488
20.96853
20.968985
20.969908
20.969924
20.969673
20.969244
20.969029
20.969481
20.969739
20.969739
20.968845
20.967473
20.968793
20.969025
20.968919
20.968611
20.967389
20.967303
20.967063
20.966433
20.964955
20.963781
20.964878
20.965393
20.965626
20.965754
20.963738
20.96359
20.96344
20.963175
20.962511
20.961753
20.962103
20.962274
20.96244
20.962661
20.962433
20.962118
20.961879
20.961666
20.961363
20.961509
20.961953
20.962236
20.962527
20.962886
20.963732
20.963331
20.962976
20.962576
20.961866
20.962375
20.96345
20.964017
20.96445
20.964874
20.966153
20.965714
20.965203
20.964447
20.962969
20.964776
20.966666
20.967585
20.968117
20.96848
20.969555
20.969255
20.968764
20.967866
20.965966
20.966689
20.968368
20.969145
20.969565
20.969811
20.969833
20.969632
20.969288
20.968657
20.96729
20.967761
20.968786
20.969262
20.969526
20.969683
20.969813
20.969708
20.969525
20.969205
20.968544
20.968795
20.969076
20.969237
20.969342
20.969411
20.969966
20.969965
20.969944
20.969915
20.969875
20.96953
20.969523
20.969492
20.969445
20.969391
20.968802
20.968861
20.968904
20.968931
20.968934
20.967889
20.967886
20.967858
20.967812
20.967756
20.966847
20.966913
20.966965
20.966998
20.967003
20.96627
20.96626
20.966219
20.966157
20.96608
20.965515
20.965598
20.965667
20.965712
20.965724
20.965307
20.965297
20.965254
20.965189
20.96511
20.964943
20.965004
20.965053
20.965081
20.965086
20.965776
20.965777
20.965754
20.965711
20.965656
20.966299
20.966344
20.966377
20.966392
20.966386
20.966978
20.96699
20.966987
20.966967
20.966935
20.967563
20.967579
20.967584
20.967576
20.967558
20.968245
20.968268
20.968288
20.9683
20.968301
20.968985
20.968965
20.968939
20.968911
20.968884
20.969716
20.969748
20.969786
20.969828
20.969864
20.970208
20.970167
20.970125
20.970081
20.970041
20.970744
20.970854
20.970886
20.970889
20.970851
20.970926
20.971105
20.971221
20.97126
20.97108
20.970685
20.971045
20.971055
20.970954
20.970781
20.970169
20.970311
20.970377
20.970302
20.969754
20.96878
20.969494
20.969623
20.969582
20.969458
20.968758
20.968869
20.968892
20.968717
20.967846
20.967067
20.968089
20.968316
20.968315
20.968215
20.967874
20.967951
20.967921
20.967631
20.966467
20.966015
20.967316
20.967677
20.967746
20.967694
20.967707
20.967803
20.967777
20.967461
20.966187
20.96642
20.967665
20.967933
20.967915
20.967769
20.967871
20.968072
20.968139
20.967917
20.966703
20.967029
20.968214
20.968389
20.968274
20.968012
20.968136
20.968459
20.968623
20.968494
20.967339
20.967632
20.96876
20.96885
20.968636
20.968246
20.968027
20.968451
20.968681
20.968611
20.967513
20.966149
20.967717
20.968056
20.967958
20.967637
20.966584
20.96652
20.966276
20.965567
20.963969
20.96276
20.963846
20.964338
20.964563
20.964685
20.962626
20.962491
20.962349
20.962115
20.961571
20.960907
20.961092
20.961195
20.961301
20.961442
20.960793
20.960613
20.960506
20.960444
20.96041
20.960032
20.960033
20.960113
20.960266
20.960519
20.96069
20.960335
20.960101
20.959953
20.95988
20.960132
20.960414
20.960666
20.960983
20.961409
20.962546
20.962066
20.961659
20.961246
20.960603
20.961273
20.96238
20.963004
20.963507
20.964013
20.967409
20.966981
20.966408
20.965478
20.963611
20.965125
20.96724
20.968241
20.968791
20.96913
20.969569
20.969295
20.968814
20.967903
20.965905
20.966264
20.967975
20.968736
20.969136
20.969358
20.969077
20.968897
20.968573
20.967964
20.966587
20.96687
20.967898
20.968358
20.968608
20.968748
20.968748
20.968654
20.968481
20.968172
20.967509
20.967692
20.967976
20.968134
20.968234
20.968298
20.968835
20.968835
20.968816
20.968786
20.968745
20.968292
20.968285
20.968256
20.968211
20.968161
20.967487
20.967536
20.967573
20.967593
20.967593
20.966481
20.966484
20.966466
20.966434
20.966392
20.965505
20.965553
20.96559
20.96561
20.965608
20.964973
20.964968
20.964937
20.964887
20.964826
20.964389
20.964463
20.964524
20.964565
20.964575
20.964327
20.964316
20.964274
20.964211
20.964136
20.964129
20.964187
20.964234
20.964263
20.964268
20.964389
20.964395
20.964388
20.96437
20.964346
20.965029
20.965059
20.965081
20.965089
20.965083
20.965646
20.965654
20.965649
20.965629
20.9656
20.966108
20.966131
20.966144
20.966144
20.966132
20.966676
20.966693
20.966701
20.966697
20.966684
20.967257
20.967258
20.967251
20.967235
20.967215
20.967856
20.96788
20.967905
20.967924
20.967936
20.968556
20.96853
20.9685
20.968469
20.968442
20.969165
20.969195
20.969234
20.969277
20.969317
20.969631
20.969586
20.969541
20.969496
20.969457
20.969991
20.970108
20.970149
20.970164
20.970149
20.97026
20.970397
20.970482
20.970491
20.970287
20.969933
20.970321
20.970363
20.970294
20.970165
20.969686
20.969785
20.969818
20.969709
20.96913
20.968298
20.96905
20.969215
20.969209
20.969129
20.968586
20.968653
20.968637
20.96842
20.967508
20.966855
20.967912
20.968187
20.96823
20.96818
20.967901
20.967932
20.967859
20.967522
20.966328
20.965902
20.967226
20.967635
20.967745
20.967736
20.967655
20.96763
20.967471
20.966978
20.965533
20.965643
20.967076
20.967524
20.967643
20.967626
20.967632
20.967691
20.967612
20.967207
20.965789
20.965973
20.967373
20.967736
20.967775
20.967674
20.96773
20.967878
20.967881
20.967561
20.966177
20.966394
20.967764
20.968045
20.967998
20.9678
20.967848
20.968099
20.968191
20.96795
20.96659
20.966785
20.96814
20.968345
20.968201
20.967881
20.967685
20.968047
20.968216
20.968039
20.966689
20.965357
20.967137
20.967638
20.967628
20.967359
20.96636
20.966254
20.96593
20.965096
20.963388
20.962183
20.963331
20.963901
20.964153
20.964304
20.96228
20.962101
20.961909
20.961639
20.961101
20.960654
20.960862
20.960986
20.9611
20.961226
20.960284
20.960199
20.96016
20.960157
20.960197
20.959591
20.959361
20.959286
20.959286
20.959361
20.958596
20.958461
20.958446
20.958542
20.958883
20.958277
20.957931
20.957886
20.957992
20.958254
20.95854
20.958134
20.957907
20.957846
20.958073
20.958433
20.958471
20.958668
20.959006
20.959511
20.961068
20.960503
20.960053
20.959649
20.959151
20.962114
20.963716
20.964559
20.965141
20.965638
20.968496
20.968101
20.967498
20.966438
20.964235
20.965321
20.967597
20.968632
20.969175
20.969477
20.969312
20.969071
20.968615
20.96772
20.965667
20.965704
20.967427
20.968157
20.96853
20.968723
20.968208
20.968053
20.967753
20.96717
20.965794
20.965917
20.966944
20.967385
20.967617
20.967739
20.967619
20.967539
20.967377
20.967081
20.966419
20.966536
20.966821
20.966974
20.967069
20.967123
20.967632
20.967633
20.967616
20.967586
20.967542
20.966974
20.966968
20.96694
20.966895
20.966848
20.966069
20.96611
20.96614
20.966155
20.966153
20.964956
20.964964
20.964959
20.964939
20.964912
20.96404
20.964068
20.964087
20.964091
20.964082
20.963548
20.963552
20.963536
20.963505
20.963465
20.963136
20.963192
20.963239
20.963268
20.963272
20.963209
20.963203
20.96317
20.963117
20.963055
20.963175
20.963223
20.963263
20.963286
20.963288
20.963509
20.963516
20.963514
20.963503
20.963489
20.964184
20.964157
20.964126
20.964098
20.964078
20.964923
20.964942
20.964964
20.964987
20.965006
20.965407
20.965398
20.965388
20.965374
20.965358
20.965792
20.965809
20.965823
20.965829
20.965827
20.96614
20.966141
20.966134
20.966121
20.966104
20.966615
20.966635
20.966652
20.966664
20.966667
20.967182
20.96717
20.967153
20.96713
20.967108
20.967715
20.96774
20.967768
20.967794
20.967815
20.968387
20.968355
20.968321
20.968289
20.968263
20.968895
20.968923
20.968962
20.969006
20.969049
20.969345
20.969296
20.96925
20.969205
20.969168
20.969561
20.969682
20.969732
20.969755
20.969758
20.969898
20.97
20.970058
20.970041
20.969817
20.969494
20.969906
20.969977
20.969937
20.969847
20.969475
20.969537
20.969539
20.969399
20.968791
20.96806
20.968846
20.969048
20.969075
20.969033
20.968611
20.968634
20.968578
20.968317
20.967374
20.966787
20.967872
20.968193
20.968278
20.96827
20.968008
20.967998
20.967884
20.9675
20.966282
20.965856
20.967196
20.967652
20.967804
20.967836
20.967717
20.967651
20.96745
20.966912
20.965462
20.965093
20.96663
20.967261
20.967525
20.967632
20.96765
20.967585
20.967361
20.966769
20.965224
20.965347
20.966896
20.96745
20.967636
20.967662
20.967681
20.967691
20.967542
20.967027
20.965477
20.965637
20.967186
20.967665
20.967778
20.96773
20.967782
20.96787
20.967795
20.967351
20.965802
20.965975
20.967526
20.967939
20.967978
20.967846
20.967893
20.968073
20.968074
20.967692
20.966133
20.966303
20.967875
20.968231
20.968184
20.967943
20.967819
20.968107
20.96818
20.967845
20.966248
20.964906
20.966851
20.967551
20.967681
20.967512
20.966461
20.966272
20.965844
20.96488
20.96309
20.961909
20.963137
20.963849
20.964215
20.964439
20.962621
20.962375
20.962083
20.961655
20.960955
20.960624
20.960994
20.961223
20.961409
20.961589
20.960291
20.960185
20.960125
20.960105
20.960137
20.95942
20.959036
20.958889
20.958841
20.958867
20.957468
20.957489
20.957612
20.957875
20.958521
20.957543
20.95671
20.956389
20.956251
20.956247
20.955365
20.95525
20.955335
20.955648
20.95657
20.955843
20.95497
20.954765
20.954842
20.955166
20.955919
20.955416
20.955183
20.955247
20.955928
20.956787
20.956531
20.956657
20.957012
20.957588
20.963024
20.962469
20.961932
20.961291
20.960224
20.963061
20.965123
20.966148
20.966772
20.967222
20.969294
20.968952
20.968352
20.967223
20.964767
20.965345
20.967717
20.968744
20.96926
20.969519
20.968852
20.968647
20.968224
20.967365
20.965293
20.965071
20.966787
20.967482
20.967823
20.967984
20.967292
20.967163
20.966888
20.966334
20.964967
20.964948
20.96597
20.966392
20.966605
20.966706
20.966467
20.966402
20.966254
20.965973
20.965313
20.965364
20.96565
20.965797
20.965883
20.965927
20.966391
20.966391
20.966375
20.966346
20.966301
20.965616
20.96561
20.965583
20.965538
20.965493
20.964588
20.964622
20.964648
20.964659
20.964655
20.963361
20.963375
20.96338
20.963373
20.963359
20.962505
20.962515
20.962515
20.962505
20.962487
20.962029
20.962041
20.962042
20.962032
20.962014
20.961834
20.96187
20.961897
20.961909
20.961905
20.961974
20.961973
20.961952
20.961914
20.961869
20.962086
20.962121
20.962151
20.962166
20.962164
20.962486
20.962496
20.9625
20.962498
20.962497
20.963091
20.963058
20.963023
20.962994
20.962973
20.963271
20.963288
20.963319
20.963366
20.963418
20.964586
20.964531
20.96448
20.964445
20.964425
20.9653
20.965323
20.965361
20.965409
20.965459
20.966113
20.966076
20.966032
20.96599
20.965963
20.966167
20.966191
20.966223
20.966255
20.966283
20.966392
20.966374
20.966351
20.966325
20.966304
20.966755
20.966777
20.966803
20.966827
20.966845
20.967311
20.967288
20.967262
20.967235
20.967212
20.967798
20.967822
20.967853
20.967885
20.967913
20.968453
20.968416
20.96838
20.968346
20.968321
20.968883
20.96891
20.968948
20.968992
20.969037
20.969321
20.96927
20.969223
20.969178
20.969143
20.969424
20.969548
20.969604
20.969633
20.969648
20.969812
20.969885
20.969918
20.969879
20.969638
20.969336
20.969771
20.969869
20.969856
20.969797
20.969508
20.969538
20.969512
20.969342
20.968706
20.968052
20.968862
20.969101
20.969163
20.969158
20.968794
20.968781
20.968688
20.968385
20.96742
20.966846
20.967951
20.968317
20.96844
20.96847
20.968202
20.968154
20.967999
20.967568
20.966335
20.965882
20.967229
20.967733
20.967928
20.968
20.967834
20.967727
20.967483
20.9669
20.965454
20.965026
20.966547
20.967216
20.967521
20.967671
20.967345
20.967148
20.966774
20.966023
20.964477
20.964562
20.966128
20.966855
20.967195
20.967353
20.967481
20.967367
20.967065
20.966365
20.964781
20.964968
20.966584
20.967255
20.967523
20.967601
20.967703
20.967657
20.96742
20.966778
20.965131
20.965302
20.966969
20.967586
20.967792
20.967807
20.967887
20.967907
20.967732
20.96714
20.965453
20.965594
20.967301
20.967873
20.968019
20.967962
20.968012
20.968111
20.967998
20.967443
20.965715
20.965857
20.967605
20.968148
20.968228
20.968076
20.967985
20.968177
20.968118
20.967578
20.965804
20.964502
20.96645
20.967343
20.967657
20.967632
20.966544
20.966244
20.965684
20.964621
20.962855
20.961784
20.963038
20.96388
20.964392
20.964727
20.963071
20.962709
20.962257
20.961635
20.960792
20.960031
20.960275
20.960837
20.961286
20.961678
20.95988
20.959578
20.959324
20.959133
20.959512
20.958808
20.957989
20.95779
20.9578
20.957954
20.956151
20.956142
20.956298
20.956712
20.957883
20.956844
20.955397
20.95485
20.95459
20.954504
20.953013
20.953113
20.953412
20.954039
20.955693
20.954483
20.95272
20.952081
20.951825
20.951828
20.951351
20.951088
20.951176
20.95171
20.953437
20.953303
20.951824
20.951483
20.951607
20.952097
20.954046
20.95347
20.953219
20.953366
20.954395
20.95817
20.958526
20.958878
20.959308
20.959858
20.965075
20.964591
20.964011
20.963158
20.961516
20.963998
20.966433
20.967572
20.968195
20.968567
20.969762
20.969481
20.968911
20.967769
20.965151
20.965236
20.967648
20.968641
20.969119
20.969336
20.968308
20.968138
20.967752
20.966937
20.964871
20.964451
20.966153
20.966809
20.967119
20.967249
20.966414
20.966312
20.966062
20.965538
20.964183
20.964034
20.965048
20.965449
20.965644
20.965723
20.965356
20.965309
20.965177
20.96491
20.964256
20.964239
20.964523
20.964662
20.964738
20.964769
20.965171
20.965169
20.965153
20.965123
20.965076
20.964283
20.964277
20.964248
20.964203
20.964158
20.963114
20.963143
20.963166
20.963176
20.963172
20.961771
20.961788
20.961801
20.961803
20.961798
20.960958
20.960956
20.960943
20.96092
20.960897
20.960505
20.960525
20.960542
20.96055
20.960551
20.960508
20.960522
20.960531
20.960529
20.960517
20.96072
20.960726
20.960716
20.960694
20.960665
20.960968
20.96099
20.961008
20.961015
20.961009
20.9614
20.961413
20.961422
20.961429
20.961436
20.96192
20.961879
20.961841
20.961812
20.961792
20.962004
20.962019
20.962046
20.962088
20.962136
20.961661
20.961617
20.961583
20.961562
20.961551
20.962936
20.962948
20.962971
20.963008
20.963055
20.964467
20.964419
20.96438
20.964355
20.964342
20.965586
20.965602
20.965631
20.965673
20.965719
20.966369
20.966317
20.966273
20.966241
20.966222
20.966577
20.966606
20.96665
20.966697
20.96674
20.966628
20.966597
20.966563
20.966529
20.966504
20.96701
20.967033
20.967064
20.967097
20.967126
20.967583
20.967551
20.967519
20.967488
20.967465
20.968056
20.968079
20.968112
20.968148
20.968184
20.968715
20.968673
20.968634
20.9686
20.968576
20.969087
20.969112
20.969149
20.969193
20.96924
20.969524
20.969472
20.969425
20.969381
20.969348
20.969544
20.969668
20.969729
20.969764
20.969785
20.969969
20.970018
20.97003
20.96997
20.969714
20.969432
20.969887
20.970011
20.970023
20.969991
20.969774
20.969775
20.969719
20.969517
20.968866
20.968252
20.969075
20.96935
20.969445
20.96947
20.969118
20.969072
20.968944
20.968602
20.967627
20.967034
20.968147
20.968556
20.968718
20.968782
20.968484
20.968398
20.968201
20.967722
20.966488
20.965987
20.967327
20.967879
20.968119
20.968232
20.968009
20.967859
20.967569
20.966941
20.965512
20.965026
20.966516
20.967222
20.967571
20.967763
20.967374
20.967135
20.966727
20.965954
20.964443
20.963749
20.965163
20.965946
20.966378
20.966621
20.966435
20.96623
20.96582
20.965053
20.963658
20.963634
20.96503
20.96581
20.966205
20.966366
20.966639
20.966527
20.96613
20.965217
20.963634
20.964202
20.965815
20.966559
20.966874
20.96694
20.967259
20.967185
20.966873
20.966143
20.96458
20.964777
20.96641
20.967141
20.96744
20.9675
20.96764
20.967603
20.967325
20.966602
20.964932
20.965077
20.966768
20.96748
20.967734
20.96774
20.967779
20.967816
20.967593
20.9669
20.96521
20.965371
20.967039
20.967701
20.967879
20.967778
20.967482
20.967659
20.967534
20.966896
20.965227
20.960965
20.962039
20.963965
20.964974
20.96554
20.964591
20.963874
20.96284
20.961152
20.960492
20.95906
20.95892
20.960556
20.961708
20.962604
20.959866
20.958588
20.957061
20.956132
20.957666
20.957287
20.954775
20.954677
20.955874
20.957184
20.955511
20.954511
20.953843
20.954461
20.957326
20.957292
20.954424
20.953875
20.954154
20.954668
20.95336
20.953146
20.953207
20.953906
20.956655
20.955746
20.95299
20.952132
20.951876
20.951888
20.95027
20.950382
20.950778
20.951779
20.954674
20.953399
20.950405
20.949324
20.948865
20.94873
20.947533
20.947554
20.947972
20.949033
20.952018
20.950844
20.948058
20.947168
20.946953
20.947205
20.948274
20.947761
20.947724
20.948337
20.950679
20.95214
20.95039
20.950011
20.950184
20.950755
20.956738
20.956236
20.955939
20.955875
20.956236
20.959842
20.960852
20.961415
20.961862
20.962298
20.966933
20.966565
20.965995
20.964994
20.962862
20.964825
20.967519
20.968699
20.969286
20.969568
20.969969
20.969743
20.969217
20.968104
20.965403
20.965094
20.967509
20.968455
20.968894
20.969075
20.96782
20.967681
20.967329
20.966559
20.964511
20.963948
20.965631
20.966253
20.966532
20.966634
20.965675
20.965597
20.965372
20.964875
20.963535
20.963261
20.964265
20.964645
20.964819
20.964877
20.964368
20.96434
20.964226
20.963976
20.96333
20.963241
20.963523
20.963651
20.963714
20.96373
20.96405
20.964043
20.964024
20.963992
20.963942
20.963057
20.963049
20.963018
20.962972
20.96293
20.961737
20.961763
20.961785
20.961796
20.961792
20.960287
20.960307
20.960325
20.960334
20.960335
20.959508
20.959498
20.959475
20.959444
20.959418
20.959082
20.959106
20.959133
20.959153
20.959164
20.95926
20.959261
20.959256
20.959243
20.959226
20.959564
20.959574
20.959574
20.959565
20.959551
20.95994
20.95995
20.959956
20.959955
20.959945
20.960373
20.960387
20.960402
20.960416
20.960428
20.960849
20.960805
20.960767
20.96074
20.960723
20.960841
20.960854
20.960878
20.960916
20.960961
20.960455
20.960415
20.960385
20.960365
20.960355
20.959478
20.959488
20.959507
20.959533
20.959567
20.960817
20.960782
20.960754
20.960734
20.960724
20.962205
20.962215
20.962235
20.962264
20.962301
20.963854
20.963815
20.963785
20.963765
20.963754
20.965201
20.965211
20.965232
20.965263
20.965305
20.966384
20.966337
20.966303
20.966282
20.96627
20.966878
20.966893
20.966917
20.966951
20.966992
20.967046
20.966997
20.966953
20.966916
20.966891
20.967352
20.967375
20.967408
20.967445
20.967482
20.967989
20.96795
20.967913
20.967882
20.96786
20.96847
20.968491
20.968523
20.968562
20.968605
20.969154
20.969107
20.969067
20.969034
20.969012
20.969496
20.969518
20.969553
20.969596
20.969646
20.969919
20.969865
20.969818
20.969776
20.969745
20.969884
20.970006
20.970074
20.970113
20.97014
20.970335
20.970364
20.970357
20.970278
20.97001
20.969751
20.970216
20.970367
20.970403
20.970394
20.970217
20.970193
20.97011
20.969878
20.969222
20.968615
20.96944
20.969748
20.969872
20.969923
20.969568
20.969493
20.969331
20.968951
20.967978
20.967348
20.968452
20.968904
20.969104
20.969201
20.968841
20.968719
20.968478
20.967954
20.966737
20.966142
20.967453
20.96805
20.968337
20.968492
20.968174
20.967979
20.967639
20.96697
20.965583
20.965025
20.966462
20.967197
20.967589
20.967826
20.967413
20.967152
20.966725
20.965948
20.964486
20.963825
20.96522
20.965977
20.966388
20.966639
20.964342
20.964124
20.963906
20.963485
20.962636
20.962379
20.963129
20.963587
20.963877
20.964043
20.961676
20.961449
20.961204
20.96106
20.961111
20.95872
20.957326
20.957149
20.957607
20.958245
20.95472
20.953575
20.95281
20.953424
20.956494
20.955405
20.952727
20.953428
20.954989
20.956452
20.962313
20.961576
20.96019
20.958124
20.957846
20.959336
20.960316
20.96211
20.963132
20.963671
20.963881
20.963365
20.962392
20.96065
20.959587
20.959184
20.960025
20.96181
20.962827
20.963404
20.961936
20.961104
20.959811
20.957915
20.95777
20.955041
20.953772
20.955255
20.957426
20.958924
20.953158
20.949864
20.947347
20.947021
20.950885
20.951667
20.944507
20.940662
20.940772
20.943514
20.94525
20.942793
20.942476
20.946106
20.953578
20.953078
20.946134
20.94265
20.943191
20.945876
20.945272
20.94316
20.943275
20.946686
20.953215
20.953886
20.947769
20.944681
20.944546
20.945933
20.947866
20.946694
20.946154
20.948737
20.954497
20.954824
20.94922
20.946903
20.947699
20.94888
20.94855
20.947788
20.947405
20.949377
20.954886
20.954498
20.949085
20.947312
20.947275
20.947694
20.946418
20.946252
20.946605
20.948379
20.953689
20.952554
20.94736
20.94555
20.944985
20.944947
20.943578
20.943686
20.944344
20.946115
20.951084
20.949505
20.944928
20.943328
20.942747
20.942748
20.942915
20.94262
20.942941
20.944213
20.948217
20.948104
20.94489
20.944036
20.944022
20.944579
20.947721