/*--------------------------------*- C++ -*----------------------------------*\
| =========                 |                                                 |
| \\      /  F ield         | OpenFOAM: The Open Source CFD Toolbox           |
|  \\    /   O peration     | Version:  2306                                  |
|   \\  /    A nd           | Website:  www.openfoam.com                      |
|    \\/     M anipulation  |                                                 |
\*---------------------------------------------------------------------------*/
FoamFile
{
    version     2.0;
    format      ascii;
    arch        "LSB;label=32;scalar=64";
    class       volScalarField;
    location    "1600";
    object      T;
}
// * * * * * * * * * * * * * * * * * * * * * * * * * * * * * * * * * * * * * //

dimensions      [0 0 0 1 0 0 0];

internalField   nonuniform List<scalar> 
225451
(
296.35104
296.40475
296.44593
296.50276
296.58659
296.74701
296.61924
296.51903
296.47005
296.42962
296.39026
296.40851
296.45238
296.51184
296.59466
296.73571
296.72406
296.56561
296.47664
296.41824
296.37814
296.3727
296.40873
296.46145
296.54681
296.71725
296.69698
296.5389
296.46264
296.41512
296.38066
296.41261
296.45312
296.50585
296.58346
296.73488
296.61205
296.50647
296.45904
296.42299
296.3875
296.37792
296.40449
296.43137
296.46646
296.54865
296.59645
296.50055
296.45764
296.42273
296.38695
296.41432
296.45987
296.51914
296.59997
296.73598
296.72751
296.57252
296.48249
296.42251
296.38096
296.34089
296.37704
296.434
296.52702
296.69113
296.69193
296.52473
296.43273
296.37654
296.34056
296.33777
296.37084
296.42091
296.50642
296.68267
296.66139
296.50032
296.42589
296.38149
296.35002
296.37669
296.40651
296.4477
296.5174
296.67175
296.70513
296.55296
296.48028
296.43544
296.40226
296.43012
296.46912
296.51911
296.59462
296.74222
296.62032
296.51304
296.46675
296.43321
296.40106
296.38697
296.41021
296.43467
296.46811
296.54983
296.55208
296.47302
296.44262
296.42178
296.40366
296.39628
296.41754
296.44022
296.47157
296.5501
296.60111
296.50671
296.46803
296.4383
296.40871
296.44017
296.48228
296.53701
296.61404
296.74292
296.73969
296.59206
296.50698
296.4516
296.41321
296.37788
296.41104
296.46276
296.54886
296.70441
296.67172
296.50966
296.42399
296.37571
296.34661
296.30745
296.33875
296.39184
296.48531
296.65721
296.66392
296.48906
296.39553
296.34174
296.30906
296.30943
296.34099
296.38903
296.47337
296.65273
296.63412
296.47217
296.39961
296.3572
296.32718
296.35947
296.38752
296.42628
296.49305
296.6464
296.66539
296.51912
296.45679
296.42121
296.3956
296.40739
296.4353
296.47392
296.54036
296.68864
296.72036
296.57251
296.50181
296.45906
296.42736
296.45035
296.48754
296.53553
296.6106
296.7564
296.63384
296.52555
296.48036
296.44921
296.4202
296.40439
296.4249
296.4471
296.47896
296.56054
296.56284
296.48352
296.45444
296.43567
296.42011
296.45607
296.46573
296.47913
296.50342
296.57803
296.56766
296.4934
296.468
296.45287
296.44134
296.43519
296.44935
296.4659
296.4918
296.56489
296.61574
296.52569
296.49276
296.47007
296.44887
296.48076
296.51628
296.56352
296.63431
296.75666
296.76064
296.62416
296.5474
296.49922
296.46608
296.44016
296.46904
296.51371
296.5898
296.73151
296.7033
296.55591
296.47996
296.43777
296.41177
296.37712
296.40215
296.44314
296.51893
296.67209
296.63883
296.47155
296.38723
296.34185
296.31506
296.27692
296.30472
296.35369
296.44585
296.62377
296.63745
296.45621
296.36207
296.3105
296.28042
296.28464
296.31557
296.36262
296.44619
296.62758
296.61231
296.45039
296.37924
296.33788
296.30843
296.34658
296.37375
296.41105
296.47547
296.62692
296.6477
296.505
296.44593
296.41228
296.38792
296.42969
296.45167
296.48223
296.53712
296.67241
296.68866
296.54836
296.48931
296.45632
296.43277
296.43959
296.46585
296.50233
296.56636
296.70929
296.73885
296.59511
296.52561
296.48446
296.45411
296.47231
296.5079
296.55448
296.62959
296.77289
296.65073
296.5414
296.49702
296.46792
296.44153
296.42507
296.44325
296.46345
296.49399
296.57584
296.57746
296.4979
296.47006
296.45315
296.4397
296.4739
296.48184
296.49376
296.51711
296.59211
296.61398
296.54412
296.52571
296.51921
296.51763
296.50292
296.5055
296.51276
296.53159
296.60072
296.5908
296.5222
296.50271
296.49438
296.49071
296.48669
296.49209
296.50121
296.52072
296.58794
296.63829
296.55295
296.52676
296.51254
296.5015
296.53443
296.56153
296.59942
296.6618
296.77498
296.78954
296.66894
296.6036
296.56488
296.53864
296.52881
296.5522
296.58757
296.64982
296.77108
296.75002
296.62453
296.56206
296.52758
296.50551
296.46829
296.49057
296.52517
296.58938
296.72162
296.68634
296.54437
296.47622
296.44018
296.41794
296.33645
296.36054
296.40123
296.47857
296.63756
296.60506
296.43374
296.3502
296.30665
296.28165
296.24723
296.27234
296.31813
296.40796
296.59026
296.61136
296.42477
296.33075
296.28136
296.25358
296.26217
296.29287
296.33958
296.42309
296.60637
296.59517
296.43322
296.36282
296.32186
296.29248
296.33688
296.36376
296.40032
296.46324
296.61305
296.63618
296.49657
296.43966
296.40707
296.38327
296.42914
296.45018
296.47926
296.53127
296.66218
296.68965
296.56626
296.51821
296.49206
296.47361
296.47076
296.4906
296.51863
296.57028
296.69915
296.71379
296.57933
296.52246
296.49145
296.46959
296.47176
296.49675
296.53169
296.59407
296.73186
296.7588
296.61946
296.5507
296.51068
296.48142
296.49517
296.52952
296.57519
296.6505
296.79018
296.66972
296.55923
296.51529
296.48787
296.46365
296.44686
296.46308
296.48161
296.5112
296.59366
296.5945
296.51443
296.48749
296.4721
296.46036
296.4924
296.49909
296.50992
296.53268
296.60839
296.62946
296.55846
296.54007
296.53399
296.53287
296.57457
296.57103
296.57294
296.58761
296.65479
296.64047
296.57486
296.56075
296.55912
296.56319
296.55229
296.54812
296.54967
296.56352
296.62803
296.61868
296.55492
296.54099
296.53922
296.54342
296.54224
296.53846
296.54018
296.55363
296.61587
296.66644
296.58473
296.56439
296.55862
296.55841
296.59441
296.61243
296.6402
296.69234
296.79557
296.82394
296.72322
296.67197
296.64406
296.62538
296.64355
296.66157
296.68576
296.72936
296.82199
296.81325
296.72109
296.67835
296.65349
296.6335
296.59682
296.61733
296.64413
296.69094
296.79085
296.7565
296.64311
296.58957
296.55968
296.53845
296.4688
296.49026
296.52282
296.58342
296.71196
296.64449
296.49269
296.42117
296.38431
296.36262
296.29418
296.317
296.35684
296.43472
296.60008
296.57004
296.39507
296.31276
296.27121
296.24812
296.21816
296.24076
296.2836
296.37097
296.55625
296.58472
296.39374
296.30046
296.2533
296.22771
296.24098
296.27161
296.31829
296.4022
296.58763
296.5811
296.41893
296.34886
296.30802
296.27854
296.33
296.35681
296.39299
296.45496
296.60342
296.6298
296.49273
296.43726
296.40526
296.3817
296.43109
296.45166
296.47987
296.52993
296.65721
296.68506
296.56635
296.52087
296.49596
296.4783
296.52388
296.53936
296.56151
296.60323
296.71429
296.71862
296.60187
296.5569
296.53306
296.51654
296.51037
296.52864
296.55479
296.60405
296.72717
296.73968
296.61105
296.55592
296.5262
296.50549
296.5035
296.52759
296.5615
296.62272
296.75518
296.77916
296.6448
296.57659
296.53732
296.50887
296.51856
296.552
296.59711
296.67248
296.80743
296.68991
296.5783
296.53448
296.50842
296.48605
296.46893
296.4835
296.50068
296.52964
296.61297
296.6131
296.53221
296.5058
296.49155
296.48111
296.51077
296.51666
296.52678
296.54937
296.6262
296.64624
296.57366
296.5549
296.54888
296.54778
296.58581
296.58303
296.58555
296.60118
296.67039
296.69662
296.62925
296.61542
296.61507
296.6204
296.61262
296.60586
296.60499
296.61733
296.68236
296.66925
296.60608
296.59486
296.59668
296.60478
296.59747
296.58827
296.58559
296.59596
296.65773
296.649
296.58812
296.57823
296.58153
296.5919
296.59311
296.58188
296.57785
296.58684
296.64617
296.69765
296.61709
296.60022
296.6009
296.60951
296.64876
296.65904
296.67839
296.72164
296.81687
296.8577
296.77665
296.73807
296.7193
296.70735
296.76128
296.77428
296.78882
296.81475
296.87641
296.88659
296.83555
296.8134
296.79749
296.77995
296.752
296.772
296.79146
296.81818
296.87501
296.84386
296.77232
296.73859
296.71592
296.69492
296.61889
296.6405
296.66672
296.70955
296.80036
296.74802
296.63684
296.58454
296.55493
296.53358
296.39715
296.41791
296.45216
296.51847
296.66109
296.59893
296.43898
296.36573
296.32908
296.30858
296.25385
296.27491
296.31312
296.39016
296.55993
296.53405
296.35622
296.27593
296.23676
296.2158
296.18985
296.20994
296.24981
296.33432
296.52163
296.55705
296.36253
296.2706
296.22581
296.20243
296.22053
296.25107
296.2978
296.38234
296.57025
296.56902
296.40643
296.33653
296.29577
296.26624
296.32595
296.35272
296.38862
296.44991
296.59729
296.62824
296.49324
296.43874
296.40712
296.38369
296.4363
296.45662
296.48433
296.53309
296.65747
296.68531
296.57041
296.5267
296.50257
296.48537
296.53272
296.54742
296.56843
296.60778
296.71408
296.74409
296.64543
296.60951
296.59088
296.57818
296.56739
296.58124
296.60135
296.6402
296.74453
296.7484
296.63759
296.59483
296.5726
296.55737
296.54818
296.56546
296.59041
296.63824
296.75549
296.76563
296.64293
296.58902
296.56014
296.54006
296.53458
296.55814
296.59141
296.65174
296.77851
296.79934
296.67061
296.60294
296.56409
296.53611
296.54221
296.57506
296.61987
296.69497
296.82423
296.71079
296.59822
296.55425
296.52927
296.50846
296.49085
296.5041
296.52021
296.54884
296.63326
296.63278
296.55075
296.52452
296.51107
296.50154
296.52858
296.53412
296.54394
296.56675
296.64507
296.66406
296.58949
296.56995
296.56362
296.56212
296.59652
296.59486
296.59831
296.61529
296.68693
296.71199
296.64188
296.6262
296.62438
296.62794
296.65484
296.65099
296.65258
296.66856
296.73752
296.72395
296.65698
296.64325
296.64353
296.64953
296.64432
296.63635
296.6344
296.64615
296.71098
296.69898
296.63614
296.62592
296.6293
296.63916
296.63462
296.62292
296.61812
296.62703
296.68837
296.68024
296.6198
296.61181
296.61781
296.63146
296.63415
296.61873
296.61152
296.61837
296.67732
296.73015
296.64813
296.6317
296.63567
296.64927
296.69038
296.69573
296.70994
296.74776
296.83791
296.88586
296.81958
296.78896
296.77562
296.76803
296.84744
296.85602
296.86484
296.88055
296.92066
296.94934
296.92813
296.91807
296.90833
296.89534
296.89587
296.91413
296.92809
296.94044
296.95877
296.93913
296.91252
296.89675
296.88042
296.86005
296.79707
296.81881
296.8379
296.86004
296.90245
296.85511
296.79093
296.75935
296.73661
296.71447
296.61993
296.64231
296.669
296.71154
296.79971
296.68972
296.5598
296.49939
296.46731
296.44678
296.32953
296.34897
296.38359
296.45326
296.60717
296.55224
296.38668
296.31367
296.27832
296.25956
296.2169
296.23584
296.27177
296.3467
296.51911
296.49722
296.3178
296.24025
296.20375
296.1851
296.16226
296.17984
296.21673
296.29809
296.48656
296.5282
296.33083
296.24083
296.19856
296.17742
296.20043
296.23083
296.27758
296.36283
296.55352
296.55798
296.39494
296.3252
296.28462
296.25519
296.32494
296.35146
296.38697
296.44759
296.59388
296.63115
296.49806
296.44435
296.41312
296.38994
296.44581
296.46588
296.4932
296.54105
296.66297
296.69046
296.57869
296.53621
296.51261
296.49575
296.54385
296.55794
296.57808
296.61566
296.7179
296.74734
296.65365
296.62006
296.60263
296.59081
296.63752
296.6482
296.66374
296.69412
296.77945
296.77545
296.68351
296.65003
296.6329
296.62124
296.60807
296.62113
296.64007
296.67703
296.7754
296.77823
296.67316
296.63168
296.61029
296.59563
296.58389
296.60091
296.62542
296.6722
296.78325
296.7911
296.67461
296.6216
296.59305
296.5731
296.56479
296.5882
296.62123
296.68075
296.80134
296.81899
296.69649
296.62957
296.5909
296.5631
296.56599
296.59855
296.64322
296.71757
296.84036
296.73206
296.61878
296.57439
296.55025
296.53073
296.51245
296.52466
296.53998
296.56858
296.65425
296.65326
296.56985
296.54343
296.53044
296.52147
296.54576
296.55135
296.5612
296.58465
296.66477
296.68271
296.60582
296.58509
296.57812
296.57587
296.6068
296.60655
296.61122
296.62993
296.70432
296.72771
296.65524
296.63721
296.63369
296.63537
296.66091
296.65907
296.66253
296.68084
296.75164
296.77573
296.70627
296.68694
296.68279
296.68422
296.67854
296.67532
296.67768
296.69485
296.76303
296.75086
296.68406
296.66896
296.66835
296.67347
296.6692
296.66201
296.66079
296.67391
296.73936
296.72883
296.66456
296.65328
296.65626
296.66562
296.66267
296.65114
296.64644
296.65607
296.71927
296.7117
296.64929
296.64082
296.64708
296.66096
296.66417
296.64807
296.64041
296.64761
296.70869
296.76271
296.67805
296.65884
296.66271
296.67729
296.71907
296.72259
296.73531
296.77289
296.8587
296.90753
296.84954
296.82361
296.81228
296.80599
296.89376
296.90081
296.90817
296.92038
296.9494
296.97936
296.96938
296.96395
296.95821
296.95057
296.97593
296.98561
296.99179
296.99553
296.9978
297.00668
297.00623
297.00183
296.99342
296.98009
296.95897
296.97697
296.98878
296.99581
296.99958
296.96904
296.95454
296.94307
296.92819
296.90749
296.83052
296.85299
296.87147
296.89088
296.92445
296.86919
296.81113
296.7809
296.75807
296.73501
296.52109
296.54259
296.57248
296.6252
296.73646
296.62793
296.48277
296.41698
296.38392
296.36494
296.26994
296.28751
296.32114
296.39155
296.55317
296.50633
296.33773
296.26666
296.23345
296.21678
296.18335
296.19996
296.2332
296.30513
296.47858
296.46011
296.28013
296.2058
296.17208
296.15581
296.13516
296.15031
296.18428
296.26226
296.45123
296.49836
296.29876
296.21108
296.17136
296.15246
296.18037
296.21062
296.25739
296.34338
296.53704
296.54736
296.38395
296.31451
296.27426
296.24506
296.327
296.35303
296.38791
296.44768
296.59265
296.63837
296.50739
296.45454
296.42388
296.40118
296.46062
296.48034
296.50727
296.55439
296.67393
296.70088
296.59179
296.55017
296.52698
296.51045
296.5581
296.57172
296.59128
296.6277
296.7267
296.7562
296.66731
296.6356
296.61905
296.60779
296.65672
296.66685
296.68137
296.70949
296.78917
296.82397
296.75315
296.72757
296.71385
296.70368
296.68291
296.69353
296.70819
296.73614
296.81322
296.80722
296.7218
296.68997
296.67351
296.66206
296.64596
296.65902
296.67763
296.71365
296.8059
296.80702
296.70834
296.6676
296.64624
296.63135
296.61773
296.63499
296.65951
296.70553
296.81009
296.81571
296.70587
296.65367
296.62506
296.60485
296.59423
296.61784
296.65089
296.70949
296.82336
296.83787
296.72218
296.65633
296.61768
296.58975
296.58981
296.62236
296.66698
296.73995
296.85571
296.75351
296.6399
296.59482
296.57126
296.55276
296.53366
296.54511
296.55989
296.58876
296.67581
296.67439
296.5894
296.56245
296.54964
296.54094
296.56237
296.56833
296.57854
296.603
296.68517
296.70209
296.62264
296.60035
296.59245
296.58918
296.61685
296.61822
296.62435
296.64527
296.72225
296.74381
296.66929
296.6488
296.64337
296.643
296.66761
296.66769
296.67306
296.69378
296.76619
296.78909
296.71852
296.69691
296.6909
296.69047
296.71187
296.71344
296.72076
296.74388
296.81263
296.80039
296.73217
296.71107
296.70549
296.70569
296.69998
296.69808
296.70197
296.72112
296.78869
296.77761
296.71077
296.69344
296.69115
296.69476
296.69017
296.68482
296.68547
296.70106
296.76723
296.75781
296.69213
296.6781
296.67898
296.68612
296.68281
296.67378
296.67129
296.68391
296.7494
296.74283
296.67717
296.6657
296.6699
296.68137
296.68437
296.67058
296.66491
296.67493
296.74051
296.7938
296.70842
296.6841
296.68387
296.69519
296.73706
296.74211
296.75733
296.797
296.87886
296.92415
296.86929
296.8423
296.83081
296.82389
296.90773
296.91606
296.92493
296.93762
296.96321
296.98511
296.9751
296.9692
296.96381
296.95783
296.99846
297.00269
297.00511
297.00593
297.00458
297.02564
297.0358
297.03837
297.03744
297.03349
297.05503
297.06147
297.06282
297.05888
297.04334
297.05377
297.07009
297.07253
297.06775
297.05596
297.0281
297.04589
297.05514
297.05634
297.04494
297.0085
297.00743
297.00064
296.98734
296.96602
296.87579
296.89913
296.9169
296.93315
296.95605
296.80363
296.71951
296.67792
296.65136
296.62899
296.42544
296.44507
296.47658
296.5369
296.66795
296.5663
296.41032
296.34234
296.30985
296.293
296.21964
296.23507
296.26675
296.33569
296.50156
296.46233
296.29277
296.22474
296.19412
296.17968
296.15234
296.16662
296.19708
296.26555
296.43883
296.42309
296.24336
296.17241
296.1414
296.12742
296.10828
296.12117
296.15242
296.22697
296.41593
296.46782
296.26642
296.18131
296.14411
296.12736
296.16015
296.19032
296.23715
296.32389
296.52058
296.53669
296.37314
296.30423
296.26448
296.23567
296.33226
296.35754
296.39152
296.45012
296.59327
296.64989
296.52165
296.46996
296.44016
296.41822
296.48202
296.50125
296.52767
296.57399
296.69072
296.71691
296.61054
296.56965
296.54684
296.53069
296.57825
296.59168
296.61089
296.64638
296.74218
296.77019
296.68488
296.65436
296.63839
296.6275
296.67641
296.68618
296.70001
296.72675
296.80248
296.83721
296.7707
296.74658
296.73351
296.72357
296.77262
296.7839
296.79676
296.81798
296.87254
296.85887
296.79973
296.77704
296.7635
296.75212
296.72902
296.74063
296.75512
296.78052
296.84676
296.8381
296.76177
296.7319
296.71568
296.70369
296.68264
296.69633
296.71508
296.75003
296.83504
296.83459
296.74286
296.70289
296.6812
296.66561
296.65021
296.66813
296.693
296.73823
296.83577
296.83928
296.73664
296.68541
296.65649
296.63569
296.62317
296.64724
296.68047
296.73781
296.84441
296.85587
296.74747
296.68322
296.64453
296.61628
296.6137
296.64648
296.69103
296.7619
296.87025
296.77507
296.66157
296.61553
296.59226
296.57453
296.55454
296.56544
296.57994
296.60941
296.69794
296.69617
296.60944
296.5816
296.56867
296.55995
296.57858
296.58517
296.59603
296.62186
296.70626
296.72207
296.64013
296.61583
296.60672
296.60217
296.62698
296.63013
296.63806
296.66147
296.74039
296.76034
296.68419
296.66112
296.65374
296.65145
296.67501
296.67702
296.68437
296.70761
296.78127
296.8029
296.73154
296.70757
296.69962
296.69729
296.71867
296.722
296.73114
296.75632
296.82531
296.8489
296.78277
296.75604
296.74513
296.74036
296.73333
296.73658
296.7459
296.77102
296.83749
296.82616
296.75953
296.73604
296.72827
296.7266
296.72029
296.72043
296.72665
296.74852
296.81521
296.80496
296.73828
296.71791
296.71311
296.7145
296.7093
296.70638
296.70974
296.72871
296.79542
296.7869
296.71998
296.70219
296.70013
296.70458
296.70061
296.69452
296.69522
296.71198
296.77938
296.77365
296.70544
296.68944
296.69007
296.69808
296.69955
296.68962
296.68779
296.70297
296.77234
296.82499
296.74083
296.71045
296.70434
296.71007
296.75223
296.76058
296.77894
296.82054
296.89807
296.93642
296.88335
296.85274
296.83716
296.82763
296.89574
296.90595
296.91824
296.93646
296.96663
296.98223
296.9663
296.95659
296.94882
296.94144
296.99654
297.00087
297.00361
297.00476
297.00379
297.03218
297.04791
297.05333
297.05464
297.05328
297.10272
297.10223
297.09796
297.08772
297.06078
297.08648
297.1217
297.13489
297.14023
297.14029
297.16209
297.16644
297.16256
297.1488
297.10933
297.1231
297.16113
297.17136
297.16932
297.1567
297.11113
297.1305
297.13807
297.13289
297.10274
297.05024
297.06209
297.05959
297.04767
297.02603
296.76734
296.78987
296.81128
296.83856
296.88839
296.73006
296.6218
296.57074
296.54212
296.52211
296.34004
296.357
296.3883
296.4527
296.59866
296.5083
296.34592
296.27847
296.24769
296.23312
296.17768
296.191
296.22029
296.28641
296.45379
296.42059
296.2515
296.18695
296.15893
296.14664
296.12277
296.13489
296.16275
296.22772
296.40004
296.38643
296.20747
296.13984
296.1113
296.09938
296.08133
296.09226
296.12109
296.19232
296.38087
296.43668
296.23392
296.15152
296.11672
296.10195
296.1396
296.16985
296.21689
296.30453
296.50434
296.52571
296.3623
296.29413
296.255
296.22666
296.34083
296.36514
296.39793
296.45494
296.59557
296.66581
296.54141
296.4914
296.46283
296.44195
296.51161
296.53014
296.55582
296.60104
296.71365
296.73992
296.6364
296.59607
296.57355
296.55773
296.6026
296.61563
296.63444
296.66928
296.76227
296.78764
296.70505
296.67529
296.6598
296.64926
296.69653
296.70602
296.71937
296.74528
296.81817
296.85163
296.78836
296.76507
296.75243
296.74264
296.7919
296.80308
296.81539
296.83558
296.88674
296.92529
296.88168
296.85889
296.84211
296.82524
296.81795
296.83378
296.84926
296.87037
296.91456
296.89962
296.85339
296.83289
296.81825
296.80379
296.77906
296.79232
296.80672
296.82838
296.88043
296.86844
296.80484
296.77852
296.76262
296.74942
296.72043
296.73485
296.75366
296.78688
296.86319
296.86112
296.77728
296.73841
296.71627
296.69971
296.68218
296.70105
296.72644
296.77057
296.86037
296.86179
296.767
296.71715
296.68779
296.66608
296.65185
296.67667
296.71014
296.76568
296.86446
296.87308
296.77232
296.7103
296.67162
296.64279
296.63781
296.67101
296.71532
296.78322
296.88385
296.79667
296.68392
296.63658
296.61329
296.59612
296.5751
296.58571
296.6002
296.63066
296.72075
296.71871
296.63011
296.60098
296.58764
296.57865
296.59455
296.60201
296.61381
296.64147
296.72811
296.7422
296.65871
296.63196
296.62126
296.61522
296.63792
296.64286
296.65267
296.67868
296.75895
296.77744
296.70019
296.67445
296.66502
296.6608
296.68324
296.68727
296.69674
296.72261
296.79703
296.8174
296.74573
296.71929
296.70923
296.70488
296.72608
296.7313
296.74242
296.76973
296.83855
296.86074
296.79526
296.76689
296.75428
296.74781
296.77324
296.78104
296.7953
296.82449
296.88528
296.87589
296.81437
296.78608
296.77296
296.76652
296.75918
296.76442
296.7764
296.80378
296.86605
296.85507
296.79159
296.76542
296.75483
296.75098
296.74299
296.74552
296.75471
296.77967
296.84431
296.8346
296.76913
296.7452
296.7372
296.73596
296.72966
296.72965
296.7365
296.75951
296.82575
296.81806
296.751
296.72865
296.72277
296.72402
296.71931
296.71676
296.72168
296.74355
296.81154
296.80701
296.73806
296.71634
296.71223
296.7162
296.71746
296.71223
296.71575
296.73751
296.80762
296.86099
296.78398
296.74799
296.73425
296.7325
296.77162
296.78403
296.80644
296.84867
296.91858
296.94772
296.89809
296.86467
296.84422
296.83062
296.88629
296.9004
296.91809
296.94251
296.97564
297.0058
296.99521
296.97398
296.95684
296.94198
297.01406
297.02533
297.03488
297.04175
297.02804
297.05605
297.08735
297.09498
297.09441
297.08854
297.15418
297.15482
297.14934
297.13367
297.08851
297.11984
297.17597
297.19685
297.20639
297.2095
297.25487
297.25098
297.2396
297.21513
297.15068
297.182
297.25113
297.2767
297.28717
297.28757
297.29368
297.30282
297.29819
297.27593
297.2078
297.19899
297.25793
297.27355
297.27085
297.2536
297.16693
297.1867
297.19344
297.1848
297.14351
296.97777
296.96342
296.95143
296.93683
296.91675
296.65398
296.6733
296.69652
296.73381
296.81068
296.65406
296.52635
296.4693
296.44069
296.42426
296.26886
296.28296
296.31271
296.37784
296.53338
296.4561
296.29092
296.22573
296.1971
296.18457
296.14175
296.15323
296.18019
296.24302
296.41013
296.38103
296.21319
296.152
296.12629
296.11588
296.09377
296.10403
296.12963
296.19137
296.36232
296.35036
296.17246
296.10788
296.08143
296.07125
296.05413
296.06343
296.09022
296.15842
296.34628
296.40511
296.20136
296.12174
296.08912
296.07605
296.1185
296.14913
296.19667
296.28549
296.48867
296.51414
296.35119
296.28395
296.24551
296.21762
296.35269
296.3759
296.40725
296.46221
296.59944
296.68584
296.56731
296.51968
296.49277
296.47327
296.55088
296.56857
296.59313
296.63625
296.74174
296.76914
296.67166
296.63212
296.60968
296.59386
296.63214
296.64498
296.66352
296.69774
296.78714
296.80801
296.72808
296.69885
296.6837
296.67341
296.71732
296.72663
296.73965
296.7651
296.83558
296.86668
296.80625
296.78345
296.77107
296.76136
296.8091
296.82078
296.83326
296.85332
296.90146
296.93275
296.88943
296.86512
296.84743
296.82999
296.80582
296.82675
296.84984
296.88309
296.93369
296.93133
296.88111
296.84963
296.82742
296.80683
296.81061
296.83071
296.8516
296.88054
296.92948
296.92704
296.88016
296.85428
296.835
296.81595
296.8181
296.83607
296.85366
296.87663
296.92142
296.90217
296.854
296.83166
296.81541
296.79973
296.76148
296.77694
296.79548
296.8256
296.89075
296.88709
296.81208
296.77485
296.75231
296.73472
296.7142
296.73424
296.76016
296.80278
296.88423
296.88352
296.79708
296.74921
296.71946
296.69666
296.68088
296.70662
296.74018
296.79322
296.88382
296.88945
296.79686
296.73789
296.6994
296.66987
296.66237
296.69607
296.73969
296.80335
296.89638
296.8175
296.7079
296.65861
296.63453
296.61759
296.59547
296.60603
296.62086
296.65278
296.74446
296.74221
296.65174
296.62083
296.60675
296.59725
296.61074
296.6193
296.63249
296.66253
296.7501
296.76281
296.67858
296.6493
296.63684
296.62926
296.65008
296.65684
296.66868
296.69739
296.77824
296.79545
296.71785
296.68935
296.67768
296.67142
296.69277
296.69897
296.71079
296.73938
296.81381
296.83297
296.76172
296.73275
296.72033
296.71376
296.73469
296.74204
296.75538
296.78486
296.85279
296.87326
296.80906
296.77909
296.76459
296.75623
296.78053
296.78984
296.80541
296.83548
296.89494
296.92052
296.86926
296.8412
296.82595
296.81722
296.81909
296.82672
296.84134
296.86886
296.91938
296.92114
296.87062
296.84248
296.82774
296.82065
296.81685
296.82348
296.83886
296.87148
296.92855
296.90487
296.84717
296.81988
296.80712
296.8021
296.7837
296.78816
296.80037
296.82717
296.88382
296.87346
296.81434
296.7877
296.77628
296.7727
296.76492
296.76765
296.77834
296.80472
296.8652
296.85899
296.79775
296.77161
296.76148
296.75951
296.7573
296.75854
296.76813
296.79396
296.85525
296.85572
296.7952
296.7699
296.76074
296.7602
296.77424
296.77432
296.78293
296.80767
296.86702
297.01821
296.9762
296.90807
296.87031
296.84509
296.87242
296.89956
296.93728
296.99673
297.02434
297.05822
297.05947
297.00082
296.95939
296.92656
297.01398
297.0597
297.11383
297.14866
297.0972
297.11144
297.19942
297.20086
297.15787
297.111
297.1746
297.21034
297.23437
297.21378
297.11224
297.11555
297.21735
297.23645
297.22673
297.20832
297.25535
297.26333
297.2614
297.23654
297.13887
297.16759
297.26605
297.29671
297.30552
297.30471
297.3553
297.3515
297.33754
297.30155
297.19779
297.23251
297.34014
297.37929
297.39584
297.40076
297.43295
297.43175
297.41618
297.37725
297.2696
297.29921
297.40003
297.43339
297.4423
297.43426
297.38691
297.40365
297.40297
297.37875
297.29347
297.23063
297.29474
297.31113
297.30777
297.28976
297.05246
297.06889
297.07685
297.07622
297.06106
296.89447
296.85214
296.83121
296.81608
296.80082
296.5485
296.56279
296.58558
296.62981
296.72969
296.5815
296.44032
296.38105
296.35415
296.34175
296.21211
296.22379
296.25139
296.31495
296.47538
296.41016
296.24457
296.18228
296.15563
296.14465
296.10934
296.11943
296.14448
296.20419
296.37016
296.34355
296.17715
296.11884
296.09495
296.08597
296.0646
296.07342
296.09727
296.15626
296.3258
296.31491
296.13828
296.07634
296.05153
296.04266
296.02645
296.03457
296.05979
296.12534
296.31227
296.37324
296.16887
296.09199
296.06127
296.04961
296.09677
296.12807
296.17648
296.26692
296.47387
296.50168
296.33946
296.27328
296.23551
296.20801
296.36757
296.38961
296.41934
296.47183
296.60471
296.70983
296.59924
296.55505
296.53038
296.51253
296.60052
296.61711
296.63995
296.67982
296.77557
296.80183
296.71329
296.67646
296.6553
296.6402
296.66709
296.67955
296.69756
296.73062
296.81422
296.83005
296.75343
296.72467
296.70987
296.69983
296.7388
296.748
296.76088
296.78615
296.85381
296.88205
296.82454
296.80199
296.78974
296.78008
296.82412
296.83654
296.84954
296.86988
296.91527
296.93846
296.89584
296.87035
296.85201
296.83431
296.80788
296.82872
296.8523
296.88649
296.93658
296.9293
296.87188
296.83057
296.80263
296.77967
296.77463
296.79811
296.82603
296.86708
296.92596
296.9235
296.86448
296.82473
296.79722
296.77372
296.7782
296.80148
296.82774
296.86511
296.92293
296.92463
296.86962
296.83569
296.81147
296.7893
296.80704
296.82775
296.84938
296.87895
296.9295
296.93545
296.88936
296.86395
296.84479
296.82588
296.80253
296.81934
296.83757
296.8638
296.91668
296.91295
296.84767
296.8129
296.79038
296.7718
296.74905
296.77009
296.79609
296.83621
296.90832
296.90546
296.82824
296.78334
296.75375
296.73004
296.71257
296.73915
296.77232
296.82187
296.90337
296.90549
296.82167
296.76693
296.72913
296.69895
296.68788
296.72187
296.76406
296.82226
296.90795
296.83806
296.7331
296.68205
296.65684
296.63967
296.61594
296.62671
296.6423
296.67622
296.76933
296.76581
296.67522
296.64197
296.62663
296.61638
296.62821
296.63801
296.65281
296.68524
296.77267
296.78436
296.70042
296.6686
296.6542
296.64498
296.66418
296.67291
296.68699
296.71837
296.79874
296.81488
296.73805
296.70682
296.6927
296.6842
296.70461
296.71322
296.72762
296.75885
296.83215
296.85014
296.78047
296.74911
296.73412
296.72511
296.74585
296.75553
296.77123
296.80267
296.86861
296.88719
296.82531
296.79403
296.77766
296.76731
296.7912
296.80169
296.81792
296.84806
296.90554
296.92461
296.874
296.84696
296.83262
296.82363
296.90078
296.90787
296.915
296.92933
296.95855
296.9646
296.93956
296.92449
296.91528
296.9103
296.98862
296.99599
297.00384
297.00843
297.00654
297.09042
297.13715
297.14279
297.12696
297.10494
297.23202
297.27218
297.29899
297.27975
297.17749
297.21526
297.30141
297.27693
297.22393
297.1733
296.97119
296.99727
297.04346
297.11252
297.12392
297.07181
297.03755
296.97842
296.94346
296.9238
296.91527
296.9342
296.96753
297.0248
297.06186
297.07511
297.04523
296.9864
296.95139
296.92996
296.97807
297.00833
297.05184
297.11603
297.12332
297.21782
297.25727
297.20594
297.13247
297.07927
297.27346
297.3872
297.47548
297.48999
297.36579
297.33977
297.57765
297.70108
297.6926
297.59503
297.5324
297.61714
297.63045
297.51385
297.266
297.2693
297.4997
297.61272
297.59179
297.50071
297.51529
297.58694
297.58591
297.47345
297.25659
297.23435
297.43762
297.53976
297.54257
297.49572
297.43524
297.47471
297.49333
297.40785
297.21646
297.20793
297.39413
297.47034
297.44308
297.40394
297.41711
297.44256
297.45556
297.39092
297.20791
297.2207
297.40046
297.45893
297.45996
297.44571
297.48494
297.49081
297.47922
297.42032
297.24393
297.27528
297.44798
297.50837
297.52712
297.52817
297.5662
297.5626
297.54052
297.48115
297.31572
297.35849
297.51117
297.56525
297.58516
297.58546
297.57159
297.58056
297.56878
297.52517
297.39123
297.3853
297.49326
297.52371
297.526
297.50901
297.3982
297.4164
297.41841
297.39754